! Touchstone file from project single_SIW_slot_antenna_39GHz
! Exported from HFSS 2017.0.0
! Variables:
!  $D1 = 2.13371266002845mm
!  $Disk_shift = 0.15647226173542mm
!  $G1 = 0.245193885882145mm
!  $G2 = 0.612984714705363mm
!  $S0 = 15mil
!  $S1 = 10mil
!  $S2 = 4.9038777176429mm
!  $SL = 1.47116330014225mm
!  $SW = 0.588465326117148mm
!  $VL = 1.83895414411609mm
!  $VW = 0.622792470140648mm
!  $W = 3.42712690890829mm
!  $W1 = 3.42712690890829mm
!  $W2 = 3.42712690890829mm
!  $W3 = 3.80050523117325mm
!  $length = 24.5193885882145mm
!  $offset = 1.48648648648649mm
!  $patch_step = 3.37141591572887mm
!  $slot_side = 0.668563300142248mm
!  $slot_step = 1.90025261558662mm
!  $substrate_edge = 1.71635720117502mm
!  $width = 7.11237553342817mm
!  brick_dist = 0.177809388335704mm
!Data is not renormalized
# GHZ S MA
! Modal data exported
! Port[1] = 1:1
20               0.000744055408613607 -0.424686127999806 
! Gamma         !               569.823566089583 0.703637779119183 
! Port Impedance0.0417506062645871 38.0029847260332 

20.02            0.000747996431130042 -0.426377578440978 
! Gamma         !               568.918380919778 0.705621001047906 
! Port Impedance0.0420691217865545 38.1015153293348 

20.04            0.000751977648874324 -0.428084349110486 
! Gamma         !               568.010846789497 0.707614457910428 
! Port Impedance0.0423907934428061 38.2005179368387 

20.06            0.000755999668537845 -0.429806903661821 
! Gamma         !               567.100952422812 0.70961823709814 
! Port Impedance0.0427156627977292 38.2999968062309 

20.08            0.000760063108871316 -0.431545709524378 
! Gamma         !               566.188686441891 0.71163242711029 
! Port Impedance0.0430437721126064 38.3999562492588 

20.1             0.000764168600978198 -0.433301237975296 
! Gamma         !               565.274037365699 0.713657117572138 
! Port Impedance0.0433751643598651 38.5004006326204 

20.12            0.000768316788616991 -0.435073964163752 
! Gamma         !               564.35699360868  0.71569239925346 
! Port Impedance0.043709883237672 38.6013343788723 

20.14            0.000772508328511599 -0.436864367186452 
! Gamma         !               563.43754347942  0.717738364087436 
! Port Impedance0.0440479731848818 38.7027619673559 

20.16            0.000776743890671149 -0.438672930120859 
! Gamma         !               562.515675179281 0.719795105189917 
! Port Impedance0.0443894793963499 38.8046879351426 

20.18            0.000781024158718581 -0.44050014007554 
! Gamma         !               561.591376801023 0.721862716879092 
! Port Impedance0.044734447838619 38.9071168779979 

20.2             0.000785349830229419 -0.442346488265391 
! Gamma         !               560.664636327389 0.723941294695546 
! Port Impedance0.0450829252659916 39.0100534513657 

20.22            0.000789721617079445 -0.444212470064657 
! Gamma         !               559.73544162968  0.726030935422746 
! Port Impedance0.0454349592369976 39.1135023713731 

20.24            0.000794140245803452 -0.446098585033763 
! Gamma         !               558.803780466296 0.728131737107936 
! Port Impedance0.0457905981312695 39.2174684158551 

20.26            0.000798606457964189 -0.448005337025455 
! Gamma         !               557.869640481257 0.730243799083474 
! Port Impedance0.0461498911668363 39.3219564254014 

20.28            0.000803121010531736 -0.449933234209283 
! Gamma         !               556.933009202696 0.732367221988608 
! Port Impedance0.0465128884178476 39.4269713044248 

20.3             0.000807684676274777 -0.45188278915177 
! Gamma         !               555.993874041332 0.734502107791705 
! Port Impedance0.0468796408327423 39.5325180222517 

20.32            0.000812298244163274 -0.453854518877127 
! Gamma         !               555.05222228891  0.736648559812957 
! Port Impedance0.0472502002528718 39.6386016142359 

20.34            0.00081696251978287 -0.455848944942668 
! Gamma         !               554.108041116618 0.738806682747548 
! Port Impedance0.0476246194315933 39.7452271828954 

20.36            0.000821678325761985 -0.457866593485888 
! Gamma         !               553.161317573474 0.740976582689324 
! Port Impedance0.0480029520538463 39.8523998990737 

20.38            0.00082644650221152 -0.459907995311889 
! Gamma         !               552.21203858469  0.743158367154958 
! Port Impedance0.0483852527562253 39.9601250031256 

20.4             0.000831267907178293 -0.461973685965934 
! Gamma         !               551.260190950003 0.745352145108633 
! Port Impedance0.0487715771475648 40.0684078061283 

20.42            0.000836143417111481 -0.464064205802449 
! Gamma         !               550.305761341979 0.747558026987247 
! Port Impedance0.0491619818300508 40.1772536911181 

20.44            0.000841073927343847 -0.466180100060628 
! Gamma         !               549.348736304283 0.749776124726167 
! Port Impedance0.0495565244208747 40.2866681143545 

20.46            0.000846060352587809 -0.468321918947872 
! Gamma         !               548.389102249927 0.752006551785529 
! Port Impedance0.0499552635744458 40.3966566066106 

20.48            0.000851103627445557 -0.470490217715258 
! Gamma         !               547.426845459479 0.754249423177114 
! Port Impedance0.0503582590051786 40.5072247744923 

20.5             0.000856204706936579 -0.472685556746978 
! Gamma         !               546.461952079248 0.756504855491801 
! Port Impedance0.0507655715108723 40.6183783017854 

20.52            0.000861364567040157 -0.474908501650494 
! Gamma         !               545.494408119423 0.758772966927625 
! Port Impedance0.0511772629967009 40.730122950833  

20.54            0.000866584205255231 -0.477159623325935 
! Gamma         !               544.524199452197 0.76105387731844 
! Port Impedance0.0515933964998317 40.8424645639425 

20.56            0.000871864641177983 -0.479439498080162 
! Gamma         !               543.551311809845 0.763347708163227 
! Port Impedance0.0520140362146911 40.9554090648234 

20.58            0.000877206917096629 -0.48174870769882 
! Gamma         !               542.575730782769 0.765654582656027 
! Port Impedance0.0524392475188976 41.0689624600576 

20.6             0.000882612098606318 -0.484087839564751 
! Gamma         !               541.597441817509 0.76797462571656 
! Port Impedance0.0528690969998831 41.1831308406016 

20.62            0.000888081275241752 -0.486457486747095 
! Gamma         !               540.616430214723 0.770307964021505 
! Port Impedance0.0533036524822223 41.2979203833228 

20.64            0.000893615561131385 -0.488858248092856 
! Gamma         !               539.632681127117 0.772654726036493 
! Port Impedance0.053742983055693 41.4133373525697 

20.66            0.000899216095671624 -0.491290728352465 
! Gamma         !               538.646179557354 0.775015042048809 
! Port Impedance0.0541871591040895 41.5293881017773 

20.68            0.000904884044222617 -0.493755538271419 
! Gamma         !               537.65691035591  0.777389044200837 
! Port Impedance0.0546362523348126 41.6460790751096 

20.7             0.000910620598826988 -0.496253294716788 
! Gamma         !               536.664858218895 0.779776866524251 
! Port Impedance0.0550903358092601 41.7634168091381 

20.72            0.00091642697895086 -0.498784620780919 
! Gamma         !               535.670007685842 0.782178644974995 
! Port Impedance0.0555494839740436 41.881407934559  

20.74            0.000922304432249737 -0.501350145899826 
! Gamma         !               534.672343137441 0.78459451746905 
! Port Impedance0.0560137726930563 42.0000591779501 

20.76            0.000928254235358858 -0.503950505984693 
! Gamma         !               533.671848793239 0.787024623919024 
! Port Impedance0.0564832792804208 42.1193773635675 

20.78            0.00093427769470943 -0.506586343546757 
! Gamma         !               532.668508709296 0.789469106271588 
! Port Impedance0.056958082534342 42.2393694151831 

20.8             0.00094037614737165 -0.509258307806265 
! Gamma         !               531.662306775796 0.791928108545765 
! Port Impedance0.0574382627718961 42.3600423579662 

20.82            0.000946550961925754 -0.511967054857396 
! Gamma         !               530.65322671461  0.794401776872117 
! Port Impedance0.0579239018647849 42.4814033204072 

20.84            0.000952803539361608 -0.514713247782252 
! Gamma         !               529.64125207682  0.796890259532841 
! Port Impedance0.058415083276086 42.6034595362868 

20.86            0.00095913531400839 -0.517497556806314 
! Gamma         !               528.626366240186 0.7993937070028  
! Port Impedance0.0589118920980322 42.726218346692  

20.88            0.000965547754495445 -0.520320659430575 
! Gamma         !               527.608552406572 0.801912271991523 
! Port Impedance0.0594144150908513 42.8496872020783 

20.9             0.000972042364744902 -0.523183240597343 
! Gamma         !               526.58779359932  0.804446109486192 
! Port Impedance0.0599227407227032 42.9738736643812 

20.92            0.000978620684998486 -0.526085992830553 
! Gamma         !               525.56407266057  0.806995376795645 
! Port Impedance0.0604369592107487 43.0987854091784 

20.94            0.000985284292878574 -0.529029616405699 
! Gamma         !               524.537372248536 0.809560233595434 
! Port Impedance0.0609571625633871 43.2244302279023 

20.96            0.000992034804485369 -0.532014819512964 
! Gamma         !               523.50767483472  0.812140841973953 
! Port Impedance0.0614834446237017 43.3508160301067 

20.98            0.000998873875531859 -0.535042318412411 
! Gamma         !               522.474962701075 0.814737366479672 
! Port Impedance0.0620159011141529 43.4779508457872 

21               0.00100580320251756 -0.538112837632667 
! Gamma         !               521.439217937114 0.817349974169518 
! Port Impedance0.0625546296825608 43.6058428277578 

21.02            0.0010128245239427 -0.541227110128882 
! Gamma         !               520.40042243696  0.819978834658419 
! Port Impedance0.0630997299494184 43.7345002540853 

21.04            0.00101993962156454 -0.544385877480943 
! Gamma         !               519.358557896335 0.82262412017006 
! Port Impedance0.0636513035565836 43.8639315305833 

21.06            0.00102715032169735 -0.547589890070227 
! Gamma         !               518.313605809495 0.82528600558887 
! Port Impedance0.0642094542173922 43.9941451933664 

21.08            0.00103445849655795 -0.550839907297007 
! Gamma         !               517.265547466098 0.827964668513295 
! Port Impedance0.0647742877682441 44.1251499114679 

21.1             0.00104186606565851 -0.554136697750732 
! Gamma         !               516.214363948009 0.830660289310381 
! Port Impedance0.065345912221709 44.2569544895222 

21.12            0.00104937499724843 -0.557481039463804 
! Gamma         !               515.160036126047 0.833373051171704 
! Port Impedance0.0659244378212063 44.389567870513  

21.14            0.00105698730980706 -0.560873720072422 
! Gamma         !               514.102544656657 0.836103140170697 
! Port Impedance0.0665099770973119 44.522999138591  

21.16            0.00106470507359057 -0.564315537082231 
! Gamma         !               513.04186997852  0.838850745321409 
! Port Impedance0.0671026449257476 44.6572575219611 

21.18            0.00107253041223293 -0.567807298066138 
! Gamma         !               511.977992309092 0.841616058638736 
! Port Impedance0.0677025585871124 44.7923523958433 

21.2             0.00108046550440543 -0.571349820917281 
! Gamma         !               510.910891641072 0.844399275200176 
! Port Impedance0.0683098378284151 44.9282932855073 

21.22            0.00108851258553572 -0.574943934077973 
! Gamma         !               509.840547738793 0.847200593209146 
! Port Impedance0.0689246049264729 45.0650898693854 

21.24            0.00109667394958918 -0.578590476791056 
! Gamma         !               508.766940134546 0.850020214059909 
! Port Impedance0.069546984753238 45.2027519822631 

21.26            0.00110495195091606 -0.582290299362942 
! Gamma         !               507.690048124818 0.85285834240417 
! Port Impedance0.0701771048431252 45.3412896185534 

21.28            0.00111334900616499 -0.586044263410668 
! Gamma         !               506.609850766462 0.85571518621937 
! Port Impedance0.0708150954624053 45.4807129356536 

21.3             0.00112186759626845 -0.589853242154184 
! Gamma         !               505.526326872772 0.858590956878756 
! Port Impedance0.0714610896807444 45.6210322573903 

21.32            0.00113051026850065 -0.593718120672721 
! Gamma         !               504.439455009488 0.861485869223264 
! Port Impedance0.0721152234449598 45.762258077553  

21.34            0.00113927963861279 -0.597639796208154 
! Gamma         !               503.349213490711 0.864400141635277 
! Port Impedance0.0727776356550758 45.9044010635205 

21.36            0.00114817839304724 -0.601619178454885 
! Gamma         !               502.255580374725 0.867333996114308 
! Port Impedance0.0734484682427617 46.0474720599822 

21.38            0.001157209291236 -0.605657189856942 
! Gamma         !               501.158533459742 0.870287658354685 
! Port Impedance0.0741278662522367 46.1914820927573 

21.4             0.00116637516798509 -0.60975476594026 
! Gamma         !               500.058050279542 0.873261357825288 
! Port Impedance0.0748159779237345 46.3364423727159 

21.42            0.00117567893594986 -0.613912855607917 
! Gamma         !               498.954108099026 0.876255327851398 
! Port Impedance0.0755129547796183 46.4823642998037 

21.44            0.0011851235882047 -0.618132421500681 
! Gamma         !               497.84668390967  0.879269805698742 
! Port Impedance0.0762189517132456 46.6292594671745 

21.46            0.00119471220091104 -0.622414440309605 
! Gamma         !               496.735754424882 0.882305032659783 
! Port Impedance0.0769341270806844 46.7771396654341 

21.48            0.00120444793608861 -0.626759903148845 
! Gamma         !               495.621296075248 0.885361254142348 
! Port Impedance0.0776586427953857 46.9260168869988 

21.5             0.0012143340444934 -0.631169815906003 
! Gamma         !               494.503285003685 0.888438719760651 
! Port Impedance0.0783926644259231 47.0759033305718 

21.52            0.00122437386860843 -0.635645199612494 
! Gamma         !               493.38169706048  0.891537683428794 
! Port Impedance0.0791363612969148 47.2268114057422 

21.54            0.00123457084575077 -0.640187090834309 
! Gamma         !               492.256507798212 0.894658403456837 
! Port Impedance0.079889906593249 47.3787537377096 

21.56            0.00124492851130135 -0.644796542055597 
! Gamma         !               491.127692466576 0.897801142649498 
! Port Impedance0.0806534774677348 47.5317431721396 

21.58            0.00125545050206259 -0.649474622081317 
! Gamma         !               489.995226007072 0.900966168407595 
! Port Impedance0.0814272551523127 47.6857927801531 

21.6             0.00126614055974872 -0.654222416471677 
! Gamma         !               488.859083047588 0.904153752832296 
! Port Impedance0.0822114250729583 47.8409158634545 

21.62            0.00127700253461648 -0.659041027937317 
! Gamma         !               487.719237896848 0.907364172832295 
! Port Impedance0.0830061769684232 47.9971259596041 

21.64            0.00128804038924123 -0.663931576803057 
! Gamma         !               486.575664538744 0.91059771023398 
! Port Impedance0.0838117050129597 48.1544368474381 

21.66            0.00129925820244575 -0.66889520145968 
! Gamma         !               485.428336626528 0.913854651894727 
! Port Impedance0.0846282079431855 48.3128625526419 

21.68            0.001310660173388 -0.673933058802325 
! Gamma         !               484.277227476873 0.917135289819397 
! Port Impedance0.0854558891892495 48.4724173534816 

21.7             0.00132225062581721 -0.679046324741263 
! Gamma         !               483.122310063797 0.920439921280162 
! Port Impedance0.0862949570104681 48.6331157867002 

21.72            0.0013340340125028 -0.684236194669709 
! Gamma         !               481.963557012444 0.923768848939761 
! Port Impedance0.0871456246356082 48.7949726535816 

21.74            0.00134601491984777 -0.689503883968466 
! Gamma         !               480.800940592716 0.927122380978316 
! Port Impedance0.0880081104080005 48.9580030261906 

21.76            0.00135819807269241 -0.69485062853149 
! Gamma         !               479.634432712762 0.930500831223811 
! Port Impedance0.0888826379356779 49.1222222537938 

21.78            0.00137058833931932 -0.700277685300644 
! Gamma         !               478.464004912299 0.933904519286384 
! Port Impedance0.0897694362467384 49.2876459694679 

21.8             0.00138319073666759 -0.705786332793849 
! Gamma         !               477.289628355787 0.937333770696541 
! Port Impedance0.0906687399501444 49.4542900969011 

21.82            0.00139601043576826 -0.711377871681145 
! Gamma         !               476.111273825435 0.94078891704745 
! Port Impedance0.0915807894021785 49.622170857396  

21.84            0.00140905276740885 -0.717053625355043 
! Gamma         !               474.928911714033 0.944270296141432 
! Port Impedance0.0925058308787854 49.7913047770795 

21.86            0.00142232322804121 -0.722814940525269 
! Gamma         !               473.742512017617 0.94777825214083 
! Port Impedance0.0934441167540438 49.9617086943276 

21.88            0.00143582748594204 -0.728663187826168 
! Gamma         !               472.552044327951 0.951313135723382 
! Port Impedance0.0943959056850175 50.1333997674133 

21.9             0.00144957138763969 -0.734599762425825 
! Gamma         !               471.357477824826 0.954875304242265 
! Port Impedance0.0953614628032519 50.3063954823838 

21.92            0.00146356096461971 -0.740626084693496 
! Gamma         !               470.158781268167 0.958465121890999 
! Port Impedance0.0963410599131928 50.4807136611779 

21.94            0.00147780244032378 -0.746743600830569 
! Gamma         !               468.955922989947 0.962082959873348 
! Port Impedance0.0973349756978171 50.6563724699892 

21.96            0.00149230223745555 -0.752953783559765 
! Gamma         !               467.748870885898 0.965729196578435 
! Port Impedance0.0983434959317784 50.8333904278867 

21.98            0.00150706698560984 -0.759258132812665 
! Gamma         !               466.537592407007 0.969404217761236 
! Port Impedance0.0993669137023869 51.0117864157004 

22               0.00152210352924027 -0.765658176440159 
! Gamma         !               465.322054550813 0.973108416728664 
! Port Impedance0.100405529638758 51.1915796851822 

22.02            0.00153741893598408 -0.772155470940051 
! Gamma         !               464.102223852464 0.976842194531439 
! Port Impedance0.101459652149478 51.3727898684528 

22.04            0.00155302050536059 -0.778751602216833 
! Gamma         !               462.878066375562 0.980605960161972 
! Port Impedance0.102529597669151 51.5554369877443 

22.06            0.00156891577786351 -0.785448186323672 
! Gamma         !               461.649547702762 0.984400130758468 
! Port Impedance0.103615690914222 51.7395414654494 

22.08            0.00158511254446774 -0.792246870274804 
! Gamma         !               460.416632926133 0.988225131815495 
! Port Impedance0.10471826514847 51.9251241344903 

22.1             0.00160161885657146 -0.799149332845461 
! Gamma         !               459.179286637268 0.992081397401262 
! Port Impedance0.105837662458595 52.1122062490173 

22.12            0.00161844303639569 -0.806157285394364 
! Gamma         !               457.937472917133 0.995969370381855 
! Port Impedance0.106974234040356 52.300809495451  

22.14            0.00163559368786763 -0.813272472721657 
! Gamma         !               456.691155325653 0.999889502652693 
! Port Impedance0.108128340495711 52.4909560038804 

22.16            0.00165307970801058 -0.820496673931471 
! Gamma         !               455.44029689102  1.00384225537749 
! Port Impedance0.109300352141467 52.6826683598316 

22.18            0.00167091029886965 -0.827831703346845 
! Gamma         !               454.184860098718 1.00782809923502 
! Port Impedance0.110490649329938 52.8759696164196 

22.2             0.00168909498000079 -0.835279411401618 
! Gamma         !               452.92480688025  1.01184751467395 
! Port Impedance0.111699622782173 53.0708833069004 

22.22            0.00170764360155402 -0.842841685596057 
! Gamma         !               451.660098601572 1.0159009921761  
! Port Impedance0.11292767393431 53.2674334576369 

22.24            0.00172656635798239 -0.8505204514646 
! Gamma         !               450.390696051197 1.01998903252846 
! Port Impedance0.114175215297657 53.4656446014965 

22.26            0.00174587380241255 -0.858317673560521 
! Gamma         !               449.116559427992 1.02411214710423 
! Port Impedance0.115442670833147 53.665541791696  

22.28            0.00176557686171094 -0.866235356480978 
! Gamma         !               447.837648328632 1.02827085815342 
! Port Impedance0.116730476340802 53.8671506161135 

22.3             0.00178568685228684 -0.87427554589148 
! Gamma         !               446.553921734705 1.03246569910312 
! Port Impedance0.118039079864943 54.0704972120832 

22.32            0.00180621549667062 -0.882440329623862 
! Gamma         !               445.265337999465 1.03669721486814 
! Port Impedance0.119368942115841 54.2756082816964 

22.34            0.00182717494091273 -0.890731838752156 
! Gamma         !               443.971854834213 1.0409659621722  
! Port Impedance0.120720536908625 54.4825111076248 

22.36            0.00184857777284951 -0.899152248736549 
! Gamma         !               442.673429294295 1.0452725098802  
! Port Impedance0.12209435162023 54.6912335694911 

22.38            0.00187043704128415 -0.907703780563046 
! Gamma         !               441.370017764704 1.04961743934201 
! Port Impedance0.123490887665271 54.9018041608077 

22.4             0.00189276627613614 -0.916388701962799 
! Gamma         !               440.06157594527  1.05400134474829 
! Port Impedance0.124910660991737 55.1142520065066 

22.42            0.00191557950961493 -0.925209328595833 
! Gamma         !               438.748058835431 1.05842483349877 
! Port Impedance0.126354202597472 55.3286068810861 

22.44            0.00193889129847733 -0.934168025344532 
! Gamma         !               437.429420718557 1.06288852658355 
! Port Impedance0.127822059068446 55.5448992274001 

22.46            0.00196271674743182 -0.943267207572607 
! Gamma         !               436.10561514583  1.06739305897798 
! Port Impedance0.129314793139891 55.7631601761152 

22.48            0.00198707153375798 -0.952509342476383 
! Gamma         !               434.776594919641 1.07193908005167 
! Port Impedance0.130832984281421 55.983421565867  

22.5             0.00201197193321242 -0.96189695043555 
! Gamma         !               433.44231207651  1.07652725399229 
! Port Impedance0.132377229307329 56.205715964143  

22.52            0.00203743484729832 -0.971432606423271 
! Gamma         !               432.102717869489 1.08115826024462 
! Port Impedance0.133948143013325 56.4300766889237 

22.54            0.00206347783198226 -0.981118941451524 
! Gamma         !               430.757762750055 1.08583279396582 
! Port Impedance0.135546358841025 56.6565378311157 

22.56            0.00209011912794311 -0.990958644062267 
! Gamma         !               429.407396349443 1.09055156649727 
! Port Impedance0.13717252957162 56.8851342778108 

22.58            0.00211737769244988 -1.00095446186453 
! Gamma         !               428.051567459433 1.09531530585402 
! Port Impedance0.138827328050188 57.115901736406  

22.6             0.00214527323296656 -1.01110920311053 
! Gamma         !               426.690224012537 1.10012475723235 
! Port Impedance0.140511447942241 57.348876759625  

22.62            0.0021738262425928 -1.02142573835074 
! Gamma         !               425.323313061592 1.10498068353651 
! Port Impedance0.142225604524151 57.5840967714787 

22.64            0.00220305803745391 -1.03190700210163 
! Gamma         !               423.950780758717 1.10988386592526 
! Port Impedance0.143970535509236 57.8216000942081 

22.66            0.00223299079616426 -1.04255599460479 
! Gamma         !               422.572572333619 1.11483510437928 
! Port Impedance0.145747001911365 58.0614259762539 

22.68            0.00226364760149473 -1.05337578363062 
! Gamma         !               421.18863207122  1.11983521829028 
! Port Impedance0.147555788948045 58.303614621298  

22.7             0.00229505248438621 -1.06436950635181 
! Gamma         !               419.798903288584 1.12488504707285 
! Port Impedance0.149397706985123 58.5482072184283 

22.72            0.00232723047046016 -1.07554037127684 
! Gamma         !               418.403328311108 1.12998545080014 
! Port Impedance0.151273592525285 58.7952459734755 

22.74            0.00236020762918859 -1.08689166027582 
! Gamma         !               417.001848447955 1.1351373108643  
! Port Impedance0.153184309242742 59.0447741415786 

22.76            0.00239401112589824 -1.09842673065868 
! Gamma         !               415.594403966697 1.14034153066314 
! Port Impedance0.155130749066595 59.2968360610353 

22.78            0.00242866927679602 -1.11014901736557 
! Gamma         !               414.180934067139 1.14559903631384 
! Port Impedance0.157113833315538 59.5514771884983 

22.8             0.00246421160721688 -1.1220620352122 
! Gamma         !               412.761376854287 1.15091077739544 
! Port Impedance0.159134513886733 59.8087441355801 

22.82            0.00250066891331164 -1.13416938127068 
! Gamma         !               411.335669310427 1.15627772772105 
! Port Impedance0.161193774501843 60.0686847069346 

22.84            0.00253807332740724 -1.14647473732859 
! Gamma         !               409.903747266285 1.1617008861415  
! Port Impedance0.163292632013437 60.3313479398863 

22.86            0.00257645838729018 -1.15898187246467 
! Gamma         !               408.465545371218 1.1671812773819  
! Port Impedance0.165432137775143 60.5967841456815 

22.88            0.00261585910968396 -1.17169464575117 
! Gamma         !               407.020997062412 1.17271995291257 
! Port Impedance0.16761337907918 60.8650449524406 

22.9             0.00265631206821309 -1.18461700908177 
! Gamma         !               405.570034533029 1.1783179918562  
! Port Impedance0.169837480665103 61.1361833498964 

22.92            0.00269785547616607 -1.19775301014456 
! Gamma         !               404.112588699275 1.18397650193293 
! Port Impedance0.172105606303865 61.4102537360038 

22.94            0.00274052927439914 -1.21110679554368 
! Gamma         !               402.648589166331 1.18969662044533 
! Port Impedance0.174418960461576 61.6873119655187 

22.96            0.00278437522474737 -1.22468261409615 
! Gamma         !               401.177964193109 1.1954795153051  
! Port Impedance0.176778790047587 61.9674154006406 

22.98            0.00282943700933783 -1.23848482029732 
! Gamma         !               399.700640655774 1.20132638610391 
! Port Impedance0.1791863862519  62.2506229638264 

23               0.00287576033623648 -1.25251787799065 
! Gamma         !               398.216544009983 1.20723846523029 
! Port Impedance0.181643086477184 62.5369951928854 

23.02            0.00292339305189216 -1.26678636425016 
! Gamma         !               396.725598251791 1.21321701903522 
! Port Impedance0.184150276371066 62.8265942984726 

23.04            0.00297238526088031 -1.2812949734903 
! Gamma         !               395.227725877151 1.21926334904873 
! Port Impedance0.186709391964743 63.1194842241053 

23.06            0.00302278945349288 -1.29604852184102 
! Gamma         !               393.72284783996  1.22537879325038 
! Port Impedance0.189321921924383 63.4157307088345 

23.08            0.00307466064176528 -1.31105195178008 
! Gamma         !               392.210883508586 1.23156472739627 
! Port Impedance0.191989409922224 63.7154013527112 

23.1             0.00312805650458432 -1.32631033708518 
! Gamma         !               390.691750620794 1.23782256640572 
! Port Impedance0.194713457134774 64.0185656851965 

23.12            0.00318303754257282 -1.34182888811252 
! Gamma         !               389.165365237015 1.24415376581073 
! Port Impedance0.19749572487602 64.3252952366732 

23.14            0.00323966724351291 -1.35761295741409 
! Gamma         !               387.631641691873 1.25055982327168 
! Port Impedance0.200337937374151 64.6356636132257 

23.16            0.00329801225913195 -1.3736680457858 
! Gamma         !               386.090492543893 1.2570422801628  
! Port Impedance0.203241884700855 64.9497465748675 

23.18            0.00335814259415148 -1.38999980870913 
! Gamma         !               384.541828523307 1.26360272323135 
! Port Impedance0.206209425862977 65.2676221174054 

23.2             0.00342013180858055 -1.40661406328354 
! Gamma         !               382.985558477865 1.2702427863345  
! Port Impedance0.209242492066968 65.5893705581412 

23.22            0.00348405723432287 -1.42351679567588 
! Gamma         !               381.421589316566 1.27696415225826 
! Port Impedance0.21234309016738 65.9150746256267 

23.24            0.00355000020726679 -1.44071416911801 
! Gamma         !               379.849825951193 1.28376855462316 
! Port Impedance0.215513306311452 66.2448195536996 

23.26            0.00361804631613437 -1.45821253254269 