! Touchstone file from project 4Port_PIFA_SAR
! Exported from HFSS 2017.0.0
! Variables:
!  A = 0.19mm
!  Airbox_dist = 125mm
!  Ant_Shift = -0.0300000000000002mm
!  Antenna_Offset = 3mm
!  Antenna_Trace_Width = 1.48mm
!  Feed_Length = 0.148mm
!  Feed_Offset = -5.23mm
!  Feed_Width = 1.48mm
!  I1 = 1mA
!  I2 = -1.11mA
!  L1 = 5.5mm
!  L2 = 61.595mm
!  L3 = 10mm
!  L4 = 54.25mm
!  Length1 = 25.5mm
!  Length2 = 6.1mm
!  Offset = 18.5mm
!  VirtualObject_dist = 12.4914mm
!  s = 1.5mm
!  subH = 62mil
!  subX = 49.4mm
!  subY = 98.8mm
# GHZ S MA R 50.000000
! Terminal data exported
! Port[1] = Feed1_T1
! Port[2] = Feed2_T1
! Port[3] = Feed3_T1
! Port[4] = Feed4_T1
1.5              0.897571763637585 -133.279433163461 0.0322577310243884 3.3982935408381  0.0373033517772413 -144.228612450803 0.0667895234673385 -88.1328099837644 
                0.0322577310238862 3.39829353997733 0.897993895197842 -133.091866710636 0.0666576770144426 -88.120457481589 0.0372240538686482 -144.117948779213 
                0.0373033517775645 -144.228612452247 0.0666576770156862 -88.1204574811144 0.897968985743245 -133.15373335717 0.0322549192471826 3.72470578028569 
                0.0667895234661038 -88.1328099830802 0.0372240538674686 -144.117948778872 0.0322549192490167 3.72470578155511 0.898002225615051 -133.134241036484 
! Port Impedance50               0                0                0                0                0                0                0                
!               0                0                50               0                0                0                0                0                
!               0                0                0                0                50               0                0                0                
!               0                0                0                0                0                0                50               0                

1.50954773869347 0.895743799085748 -135.164657818379 0.0333863256025607 0.823269344431138 0.0374050739607307 -147.391193255188 0.0683668502221215 -90.713455636532 
                0.0333863256204691 0.823269358233243 0.89618067222553 -134.974170851547 0.0682331508512578 -90.7003248613239 0.0373239019849819 -147.278209792314 
                0.0374050739355668 -147.391193251474 0.068233150857844 -90.7003248630658 0.896140917667743 -135.038678149   0.0333791530704624 1.14107574029097 
                0.0683668502357288 -90.7134556368266 0.0373239020037418 -147.278209795092 0.0333791530669569 1.14107573674139 0.896178765368278 -135.016110113031 
! Port Impedance50               0                0                0                0                0                0                0                
!               0                0                50               0                0                0                0                0                
!               0                0                0                0                50               0                0                0                
!               0                0                0                0                0                0                50               0                

1.51909547738693 0.893782181625514 -137.05004135698 0.0345591723840908 -1.76294226743613 0.0375412883553986 -150.575201164942 0.0699806336628787 -93.2859426317441 
                0.0345591724193095 -1.76294224236887 0.894233380109014 -136.856626009181 0.0698447005905286 -93.2721790907426 0.037458190107545 -150.459872659406 
                0.0375412883079289 -150.57520115815 0.0698447006017118 -93.2721790946265 0.894180052159554 -136.923691536831 0.0345474521216239 -1.45347544994692 
                0.0699806336895924 -93.2859426335553 0.0374581901437712 -150.459872663806 0.0345474521130867 -1.45347545723593 0.894222784547726 -136.897962569168 
! Port Impedance50               0                0                0                0                0                0                0                
!               0                0                50               0                0                0                0                0                
!               0                0                0                0                50               0                0                0                
!               0                0                0                0                0                0                50               0                

1.5286432160804  0.891689946219126 -138.935752897044 0.0357778768122731 -4.36120325658755 0.0377124762832395 -153.780511622764 0.0716320532785107 -95.849821893888 
                0.0357778768635994 -4.36120322332348 0.892155102125174 -138.739392444698 0.0714935018906896 -95.8355437512091 0.0376273958556875 -153.662810298991 
                0.0377124762165298 -153.780511614637 0.0714935019057301 -95.8355437571208 0.892089458807235 -138.80894614574 0.035761410225648 -4.05979926487937 
                0.0716320533165746 -95.8498218976177 0.0376273959069961 -153.662810303772 0.0357614102124168 -4.05979927493236 0.892137332948775 -138.779974547166 
! Port Impedance50               0                0                0                0                0                0                0                
!               0                0                50               0                0                0                0                0                
!               0                0                0                0                50               0                0                0                
!               0                0                0                0                0                0                50               0                

1.53819095477387 0.889469748044518 -140.821988399611 0.0370440825978558 -6.97236834054438 0.0379191391060919 -157.007074280317 0.0733224714479633 -98.4046744628632 
                0.0370440826639853 -6.97236830182294 0.889948547757803 -140.622657818659 0.0731809149500286 -98.3899739030362 0.0378320166795527 -156.886969893185 
                0.0379191390230863 -157.007074272274 0.0731809149682017 -98.3899739108249 0.889871823729056 -140.694641175255 0.0370226596048131 -6.6787407236304 
                0.0733224714956178 -98.404674468783 0.0378320167436535 -156.886969897357 0.0370226595872551 -6.67874073557552 0.889925074838679 -140.662348660283 
! Port Impedance50               0                0                0                0                0                0                0                
!               0                0                50               0                0                0                0                0                
!               0                0                0                0                50               0                0                0                
!               0                0                0                0                0                0                50               0                

1.54773869346734 0.887123835869215 -142.708969880606 0.0383594717126119 -9.5972841281321 0.0381618015129246 -160.254921456929 0.0750534511981268 -100.95011990103 
                0.0383594717921393 -9.59728408636579 0.887616025275519 -142.506636401707 0.0749085022168312 -100.935064680415 0.03807257315408 -160.13238137515 
                0.0381618014164395 -160.254921450086 0.0749085022374344 -100.935064689898 0.887529423461183 -142.581001597175 0.0383328709672698 -9.3111375917792 
                0.0750534512536276 -100.950119909289 0.038072573228781 -160.132381377952 0.0383328709457813 -9.31113760484734 0.887588263084063 -142.545313182501 
! Port Impedance50               0                0                0                0                0                0                0                
!               0                0                50               0                0                0                0                0                
!               0                0                0                0                50               0                0                0                
!               0                0                0                0                0                0                50               0                

1.5572864321608  0.884654026378271 -144.596944601114 0.0397257644120371 -12.236788671766 0.0384410148908823 -163.524176028612 0.0768267738466568 -103.485824973068 
                0.0397257645034586 -12.2367886290444 0.88515941529861 -144.391568260255 0.0766780459382498 -103.470460126597 0.0383496123569453 -163.399165347088 
                0.0384410147836012 -163.5241760238  0.0766780459606107 -103.470460137564 0.885064099809768 -144.468277334492 0.0396937536252961 -11.9578199994821 
                0.076826773908293 -103.485824983701 0.0383496124401565 -163.399165347974 0.0396937536003018 -11.9578200130048 0.885128714235798 -144.429121220331 
! Port Impedance50               0                0                0                0                0                0                0                
!               0                0                50               0                0                0                0                0                
!               0                0                0                0                50               0                0                0                
!               0                0                0                0                0                0                50               0                

1.56683417085427 0.882061679265666 -146.486184235057 0.0411447192756518 -14.891711455066 0.0387573607435926 -166.815058655405 0.0786444564132622 -106.011512480521 
                0.0411447193773714 -14.8917114131607 0.882580145169134 -146.277718416272 0.0784915654329502 -105.995862148824 0.0386637112939084 -166.687540336067 
                0.038757360628061 -166.815058653196 0.0784915654564342 -105.995862161042 0.882477235472562 -146.356742420042 0.0411070556300936 -14.6196104929257 
                0.0786444564793758 -106.011512493459 0.0386637113836455 -166.687540334687 0.0411070556020457 -14.6196105063333 0.882547784374991 -146.314049865248 
! Port Impedance50               0                0                0                0                0                0                0                
!               0                0                50               0                0                0                0                0                
!               0                0                0                0                50               0                0                0                
!               0                0                0                0                0                0                50               0                

1.57638190954774 0.879347672893975 -148.37698401069 0.0426181332446521 -17.5628738307013 0.039111454114264 -170.127894275364 0.0805087687034079 -108.526970136645 
                0.0426181333549879 -17.5628737910743 0.879879163932856 -148.16537597797 0.0803513339946018 -108.511039477106 0.0390154803290991 -169.997829315311 
                0.0391114539928857 -170.127894276094 0.0803513340186184 -108.511039490328 0.879769730231902 -148.246694131291 0.0425745639010898 -17.2973245323122 
                0.0805087687724105 -108.526970151727 0.0390154804234866 -169.997829311492 0.0425745638704656 -17.2973245451312 0.879846345520309 -148.200399323028 
! Port Impedance50               0                0                0                0                0                0                0                
!               0                0                50               0                0                0                0                0                
!               0                0                0                0                50               0                0                0                
!               0                0                0                0                0                0                50               0                

1.58592964824121 0.87651238032716 -150.269661819892 0.0441478416257107 -20.2510899193681 0.0395039469645588 -173.463117814451 0.0824222499906444 -111.032059374321 
                0.0441478417429048 -20.2510898831811 0.877056917740499 -150.054853235733 0.0822598953570426 -111.015836519073 0.0394055665712683 -173.330465439628 
                0.0395039468395921 -173.463117818249 0.0822598953810514 -111.015836533038 0.876941977521536 -150.138452095152 0.0440981043166344 -19.991771445535 
                0.0824222500610364 -111.032059391307 0.0394055666685424 -173.330465433351 0.0440981042839343 -19.9917714573849 0.877024762397913 -150.088492013821 
! Port Impedance50               0                0                0                0                0                0                0                
!               0                0                50               0                0                0                0                0                
!               0                0                0                0                50               0                0                0                
!               0                0                0                0                0                0                50               0                

1.59547738693467 0.873555645545852 -152.164557286559 0.0457357180162133 -22.9571679764953 0.0399355314529646 -176.821279082168 0.0843877252462632 -113.526723989966 
                0.0457357181384433 -22.9571679446208 0.874113325479253 -151.946484714969 0.0842200796757473 -113.510182014251 0.0398346571598111 -176.68599696435 
                0.0399355313265193 -176.821279088979 0.0842200796992637 -113.510182028694 0.873993841174856 -152.032357354162 0.0456795417193739 -22.7037558424007 
                0.0843877253166483 -113.526724008547 0.0398346572583219 -176.685996955728 0.0456795416851181 -22.7037558529903 0.874082869380702 -151.978671634113 
! Port Impedance50               0                0                0                0                0                0                0                
!               0                0                50               0                0                0                0                0                
!               0                0                0                0                50               0                0                0                
!               0                0                0                0                0                0                50               0                

1.60502512562814 0.870476759663435 -154.062030782491 0.0473836740896871 -25.6819122285995 0.0404069430482404 179.796953157907 0.086408320885821 -116.010998538955 
                0.0473836742150808 -25.6819122016353 0.871047754453447 -153.840626174655 0.0862350190021659 -115.994097404659 0.0403034823862724 179.934908663379 
                0.0404069429222758 179.796953148288 0.0862350190247655 -115.994097419314 0.870924632171399 -153.928771382452 0.04732077977303 -25.4340794895944 
                0.086408320954922 -116.010998558773 0.0403034824844856 179.934908674122 0.0473207797377542 -25.4340794987177 0.871019947413262 -153.871302168912 
! Port Impedance50               0                0                0                0                0                0                0                
!               0                0                50               0                0                0                0                0                
!               0                0                0                0                50               0                0                0                
!               0                0                0                0                0                0                50               0                

1.61457286432161 0.867274436974756 -155.962462376008 0.0490936591601728 -28.4261251760604 0.0409189634042784 176.390787936303 0.0884874800194176 -118.485016412356 
                0.0490936592868253 -28.4261251543448 0.867858995945923 -155.737653537189 0.0883081622456483 -118.4677048538  0.0408128185778557 176.531461534813 
                0.0409189632806016 176.390787924209 0.0883081622669694 -118.467704868408 0.867733085212208 -155.828075036838 0.0490237605873403 -28.183543641491 
                0.0884874800860889 -118.485016433012 0.0408128186743541 176.531461547362 0.0490237605515918 -28.1835436490223 0.867834700753082 -155.76676683933 
! Port Impedance50               0                0                0                0                0                0                0                
!               0                0                50               0                0                0                0                0                
!               0                0                0                0                50               0                0                0                
!               0                0                0                0                0                0                50               0                

1.62412060301508 0.863946790687732 -157.866250694975 0.0508676594203044 -31.1906103533253 0.0414724229121403 172.959309623752 0.090628977204442 -120.949017539969 
                0.0508676595462965 -31.1906103369556 0.864545240509252 -157.63796173159 0.0904432896300438 -120.931234862113 0.0413634906589399 173.102746810556 
                0.0414724227924049 172.959309609614 0.0904432896497907 -120.931234876426 0.864417334973096 -157.73066742488 0.050790464004067 -30.9529518162476 
                0.0906289772676802 -120.949017561039 0.0413634907524244 173.102746824528 0.0507904639683986 -30.9529518221362 0.864525233377458 -157.665466967256 
! Port Impedance50               0                0                0                0                0                0                0                
!               0                0                50               0                0                0                0                0                
!               0                0                0                0                50               0                0                0                
!               0                0                0                0                0                0                50               0                

1.63366834170854 0.860491308212022 -159.773811681938 0.0527076967193585 -33.9761755310248 0.0420682028328397 169.501476243219 0.09283693270393 -123.40335567997 
                0.0527076968427796 -33.9761755198767 0.861104052859093 -159.541963428121 0.092644526656749 -123.385033442961 0.0419563742944696 169.647723020254 
                0.0420682027185454 169.50147622754  0.0926445266746924 -123.385033456743 0.860974891908548 -159.63696466782 0.0526229064086975 -33.7431130002162 
                0.0928369327628831 -123.40335570102 0.04195637438376 169.64772303522  0.052622906373662 -33.7431130044807 0.861089024929624 -159.56782073489 
! Port Impedance50               0                0                0                0                0                0                0                
!               0                0                50               0                0                0                0                0                
!               0                0                0                0                50               0                0                0                
!               0                0                0                0                0                0                50               0                

1.64321608040201 0.856904825909185 -161.685577214583 0.054615826713973 -36.7836363370097 0.0427072369003392 166.016118508399 0.0951158262487959 -125.848505270037 
                0.0546158268329441 -36.7836363307596 0.857532346271643 -161.450087637903 0.0949163575810995 -125.829568838305 0.0425923975050559 166.165221091415 
                0.0427072367928322 166.016118491731 0.0949163575970768 -125.829568851342 0.857402617508853 -161.547398531933 0.054523138899242 -36.5548452564255 
                0.0951158263027684 -125.848505290634 0.0425923975890904 166.165221106917 0.054523138865385 -36.5548452591469 0.857522906107984 -161.474261812492 
! Port Impedance50               0                0                0                0                0                0                0                
!               0                0                50               0                0                0                0                0                
!               0                0                0                0                50               0                0                0                
!               0                0                0                0                0                0                50               0                

1.65276381909548 0.853183503246618 -163.601993559555 0.0565941361850612 -39.6138202647026 0.0433905122679035 162.501939545605 0.0974705102861997 -128.285067827822 
                0.0565941362977622 -39.6138202628506 0.853826356424406 -163.362778145936 0.0972636383927897 -128.265437766651 0.0432725416273585 162.653944064038 
                0.0433905121683768 162.501939528521 0.0972636384067037 -128.265437778752 0.853696698950284 -163.462414896683 0.0564932446048174 -39.3889797044767 
                0.0974705103346571 -128.285067847546 0.0432725417051943 162.653944079605 0.0564932445726703 -39.3889797057921 0.853823033439945 -163.385237822598 
! Port Impedance50               0                0                0                0                0                0                0                
!               0                0                50               0                0                0                0                0                
!               0                0                0                0                50               0                0                0                
!               0                0                0                0                0                0                50               0                

1.66231155778894 0.849322796344699 -165.52351962178 0.0586447392691695 -42.4675710271747 0.0441190696520877 158.957515256294 0.0999062226674504 -130.71377789935 
                0.0586447393738659 -42.4675710290707 0.849981614666158 -165.280491740008 0.0996916092617513 -130.693371206784 0.0439978414745347 159.11246744804  
                0.0441190695615818 158.957515239372 0.0996916092735678 -130.693371217782 0.849852623124387 -165.382472022302 0.0585353349020224 -42.246364829493 
                0.0999062227100188 -130.713777917807 0.0439978415453468 159.112467463206 0.0585353348720938 -42.2463648295881 0.849984863428548 -165.301208603157 
! Port Impedance50               0                0                0                0                0                0                0                
!               0                0                50               0                0                0                0                0                
!               0                0                0                0                50               0                0                0                
!               0                0                0                0                0                0                50               0                

1.67185929648241 0.84531743096501 -167.450624944593 0.0607697723006701 -45.3457532038057 0.0448940025069337 155.381295281832 0.102428598685378 -133.13550856166 
                0.0607697723957425 -45.3457532086753 0.845992920760042 -167.203696191192 0.102205906366959 -133.114239728629 0.0447693845299097 155.539240184713 
                0.0448940024263383 155.381295265634 0.102205906376704 -133.114239738387 0.845865150089793 -167.308038572646 0.0606515442259705 -45.127871066508 
                0.102428598721843 -133.135508578489 0.0447693845929905 155.539240199033 0.0606515441987386 -45.1278710656088 0.846003126117891 -167.222644225278 
! Port Impedance50               0                0                0                0                0                0                0                
!               0                0                50               0                0                0                0                0                
!               0                0                0                0                50               0                0                0                
!               0                0                0                0                0                0                50               0                

1.68140703517588 0.841161375059999 -169.383787408114 0.062971386902435 -48.2492571130062 0.0457164550361538 151.77160454021  0.105043682311364 -135.551276490081 
                0.062971386986409 -48.2492571199795 0.841854315215853 -169.132867933758 0.104812572965314 -135.529058386639 0.0455883089823088 151.932586181619 
                0.0457164549662094 151.771604525265 0.104812572973069 -135.52905839505 0.841728286061101 -169.23959134141 0.0628440231149668 -48.0343955936535 
                0.105043682341667 -135.551276504967 0.045588309037067 151.932586194677 0.0628440230908696 -48.0343955920187 0.841871798194886 -169.150022713536 
! Port Impedance50               0                0                0                0                0                0                0                
!               0                0                50               0                0                0                0                0                
!               0                0                0                0                50               0                0                0                
!               0                0                0                0                0                0                50               0                

1.69095477386935 0.836847811094221 -171.323490564191 0.0652517408968131 -51.1790038290714 0.0465876188229823 148.126645316351 0.107757936404446 -137.962246600555 
                0.0652517409683895 -51.1790038372108 0.837559051416971 -171.068489383242 0.1075180694794  -137.938991190959 0.0464558003834808 148.290706402185 
                0.046587618764282 148.12664530314  0.107518069485298 -137.938991197948 0.837435256137467 -171.177612620797 0.0651149290629748 -50.9668672524758 
                0.107757936428675 -137.962246613231 0.0464558004294397 148.290706413609 0.0651149290424019 -50.9668672503879 0.837584075833426 -171.083827407773 
! Port Impedance50               0                0                0                0                0                0                0                
!               0                0                50               0                0                0                0                0                
!               0                0                0                0                50               0                0                0                
!               0                0                0                0                0                0                50               0                

1.70050251256281 0.832369108458172 -173.270220535784 0.0676129865359295 -54.1359502435368 0.0475087278259152 144.444499903044 0.110578251567322 -140.36973627281 
                0.0676129865940135 -54.1359502518666 0.833099567858014 -173.011045821003 0.11032928228477 -140.345355166752 0.0473730866766666 144.611681506743 
                0.0475087277789068 144.444499891987 0.110329282288988 -140.345355172273 0.832978477082634 -173.122587141347 0.067466414682331 -53.9262514964233 
                0.110578251585703 -140.369736283068 0.0473730867134629 144.611681516213 0.0674664146656145 -53.9262514941802 0.833132347596572 -173.024543894971 
! Port Impedance50               0                0                0                0                0                0                0                
!               0                0                50               0                0                0                0                0                
!               0                0                0                0                50               0                0                0                
!               0                0                0                0                0                0                50               0                

1.71005025125628 0.827716796432716 -175.224462396574 0.0700572554709775 -57.1210940512192 0.0484810514537784 140.723133808318 0.113511953204804 -142.775219150697 
                0.0700572555147072 -57.1210940587548 0.828467460945844 -174.961021761592 0.113253530757645 -142.749624002227 0.0483414313106813 140.893475060528 
                0.0484810514187668 140.723133799768 0.113253530760399 -142.749624006267 0.8283495306028  -175.074998499736 0.0699006126010432 -56.9135552487858 
                0.113511953217689 -142.775219158388 0.0483414313380634 140.893475067779 0.0699006125884488 -56.9135552466922 0.828508167847546 -174.972656427879 
! Port Impedance50               0                0                0                0                0                0                0                
!               0                0                50               0                0                0                0                0                
!               0                0                0                0                50               0                0                0                
!               0                0                0                0                0                0                50               0                
