! Touchstone file from project dipole_model
! Exported from HFSS 15.0.0
! Variables:
!  dipole_length = 62.5mm
!  gap = 0.625mm
!  spacing = 12.5mm
!  thick = 1.25mm
!  wavelength = 125mm
# GHZ S MA R 50.000000
! Modal data exported
! Port[1] = 1:1
! Port[2] = 2:1
1                0.993803838093909 -21.423551045614 0.0486192530841121 74.3594172518266 0.0486192530036684 74.3594172613088 0.993852390764107 -21.3195660447122 
! Gamma  !      0                0                0                0                
! Port Impedance  50               0                50               0                

1.01             0.993490586265207 -21.7121267127879 0.0492011530973107 74.3251996267324 0.0492011531113511 74.3251996256742 0.99354207596631 -21.6066613105628 
! Gamma  !      0                0                0                0                
! Port Impedance  50               0                50               0                

1.02             0.993160808766987 -22.0036945291767 0.0497883119755751 74.2992698726691 0.0497883119631825 74.2992698745283 0.993215414243198 -21.8967269908007 
! Gamma  !      0                0                0                0                
! Port Impedance  50               0                50               0                

1.03             0.992813651533499 -22.2983225357341 0.0503811992413427 74.2819524556877 0.0503811992366073 74.2819524558906 0.992871561378269 -22.1898329343605 
! Gamma  !      0                0                0                0                
! Port Impedance  50               0                50               0                

1.04             0.992448223435586 -22.5960826491599 0.0509803368274673 74.273566629907  0.0509803368447397 74.2735666276283 0.992509637246821 -22.4860499918689 
! Gamma  !      0                0                0                0                
! Port Impedance  50               0                50               0                

1.05             0.992063596419276 -22.8970480880183 0.0515862997533019 74.274425268109  0.0515862997452936 74.2744252687695 0.99212872540838 -22.7854499932016 
! Gamma  !      0                0                0                0                
! Port Impedance  50               0                50               0                

1.06             0.991658804942697 -23.201293493383 0.0521997199289242 74.2848318966888 0.0521997199216634 74.2848318975221 0.991727872582577 -23.0881061259634 
! Gamma  !      0                0                0                0                
! Port Impedance  50               0                50               0                

1.07             0.991232847581364 -23.5088886396734 0.0528212839927923 74.3050811764146 0.0528212839693392 74.3050811793558 0.991306088563418 -23.3940921952708 
! Gamma  !      0                0                0                0                
! Port Impedance  50               0                50               0                

1.08             0.990784681504261 -23.8199140154449 0.0534517531881541 74.3354475223675 0.053451753192918 74.3354475217246 0.990862344971405 -23.7034833832059 
! Gamma  !      0                0                0                0                
! Port Impedance  50               0                50               0                

1.09             0.990313227380758 -24.1344451638267 0.0540919512325386 74.3761895936732 0.0540919512408219 74.376189592319  0.990395575914358 -24.0163556926777 
! Gamma  !      0                0                0                0                
! Port Impedance  50               0                50               0                

1.1              0.989817366929489 -24.4525594881233 0.0547427753892996 74.4275429394748 0.0547427753814197 74.4275429404763 0.989904677389082 -24.3327863163271 
! Gamma  !      0                0                0                0                
! Port Impedance  50               0                50               0                

1.11             0.989295942971307 -24.7743360129341 0.0554051998531387 74.4897161982554 0.0554051998473424 74.4897161993089 0.989388507261831 -24.6528533245574 
! Gamma  !      0                0                0                0                
! Port Impedance  50               0                50               0                

1.12             0.988747759586712 -25.0998544400643 0.056080279309592 74.5628871231634 0.0560802793179892 74.5628871220676 0.988845885254542 -24.9766359488084 
! Gamma  !      0                0                0                0                
! Port Impedance  50               0                50               0                

1.13             0.988171582062434 -25.4291957682105 0.0567691528972979 74.6471978852392 0.056769152922032 74.6471978804734 0.988275593020103 -25.3042144027735 
! Gamma  !      0                0                0                0                
! Port Impedance  50               0                50               0                

1.14             0.987566137181284 -25.7624419306707 0.0574730475357173 74.7427504960316 0.0574730475371259 74.7427504959057 0.987676374315484 -25.6356700406879 
! Gamma  !      0                0                0                0                
! Port Impedance  50               0                50               0                

1.15             0.986930113155583 -26.0996762635262 0.0581932818987551 74.8496018528309 0.0581932819037334 74.8496018518422 0.987046935163196 -25.971085300082 
! Gamma  !      0                0                0                0                
! Port Impedance  50               0                50               0                

1.16             0.986262160149552 -26.4409829459073 0.0589312690276368 74.9677591161853 0.058931269041269 74.9677591134785 0.98638594414408 -26.3105437959006 
! Gamma  !      0                0                0                0                
! Port Impedance  50               0                50               0                

1.17             0.985560890410282 -26.7864476105979 0.0596885195373214 75.0971744910199 0.0596885195294799 75.0971744927788 0.985692032683372 -26.6541304853233 
! Gamma  !      0                0                0                0                
! Port Impedance  50               0                50               0                

1.18             0.984824878519843 -27.1361572024936 0.0604666441427297 75.237740693323  0.0604666441442225 75.2377406929474 0.984963795328472 -27.0019314199105 
! Gamma  !      0                0                0                0                
! Port Impedance  50               0                50               0                

1.19             0.984052661719915 -27.4901998295137 0.0612673558399812 75.3892861917174 0.0612673558268617 75.3892861945836 0.984199790072448 -27.3540341660939 
! Gamma  !      0                0                0                0                
! Port Impedance  50               0                50               0                

1.2              0.983242740188242 -27.8486654194453 0.0620924714399269 75.551570591057  0.0620924714342492 75.5515705923592 0.983398538613937 -27.7105277718247 
! Gamma  !      0                0                0                0                
! Port Impedance  50               0                50               0                

1.21             0.982393577042985 -28.2116454069396 0.0629439132827776 75.7242807265343 0.0629439132694077 75.7242807297186 0.982558526557041 -28.0715028619873 
! Gamma  !      0                0                0                0                
! Port Impedance  50               0                50               0                

1.22             0.981503599133551 -28.5792325304297 0.0638237086375131 75.9070271811101 0.0638237086237331 75.9070271857542 0.981678203621281 -28.4370517712973 
! Gamma  !      0                0                0                0                
! Port Impedance  50               0                50               0                

1.23             0.980571195839026 -28.9515220974225 0.0647339921470164 76.0993405815417 0.0647339921317856 76.0993405848612 0.980755983522265 -28.8072687202432 
! Gamma  !      0                0                0                0                
! Port Impedance  50               0                50               0                

1.24             0.979594719823502 -29.3286111042357 0.0656770039634293 76.3006695775728 0.0656770039631984 76.3006695772195 0.979790243869032 -29.1822500669796 
! Gamma  !      0                0                0                0                
! Port Impedance  50               0                50               0                

1.25             0.978572486175358 -29.7105994204078 0.0666550895570229 76.5103786838881 0.0666550895497481 76.5103786860022 0.9787793259953  -29.5620942741701 
! Gamma  !      0                0                0                0                
! Port Impedance  50               0                50               0                

1.26             0.977502772870409 -30.0975880609981 0.0676706971125658 76.7277482398716 0.0676706970850979 76.7277482457254 0.977721534356944 -29.9469022231886 
! Gamma  !      0                0                0                0                
! Port Impedance  50               0                50               0                

1.27             0.976383818789128 -30.4896812783415 0.0687263774938655 76.951973409729  0.0687263774898234 76.9519734106363 0.976615135743774 -30.3367774633683 
! Gamma  !      0                0                0                0                
! Port Impedance  50               0                50               0                

1.28             0.975213822377003 -30.8869873362289 0.0698247824558593 77.1821648217726 0.0698247824583096 77.1821648220357 0.975458358178784 -30.7318264245245 
! Gamma  !      0                0                0                0                
! Port Impedance  50               0                50               0                

1.29             0.973990943173531 -31.2896146747171 0.0709686578310883 77.4173525225859 0.0709686578297823 77.4173525222752 0.974249390002187 -31.1321585646477 
! Gamma  !      0                0                0                0                
! Port Impedance  50               0                50               0                

1.3              0.972713295100865 -31.6976787366324 0.0721608478959284 77.6564855919692 0.072160847889248 77.6564855938044 0.972986377576362 -31.5378867520685 
! Gamma  !      0                0                0                0                
! Port Impedance  50               0                50               0                

1.31             0.971378949258833 -32.1112961046906 0.0734042855331733 77.8984390980719 0.0734042855313383 77.8984390989004 0.971667423888802 -31.9491274494468 
! Gamma  !      0                0                0                0                
! Port Impedance  50               0                50               0                

1.32             0.969985928386554 -32.530588722814 0.0747019933947314 78.1420170079276 0.0747019934025373 78.1420170063869 0.970290585862195 -32.366001033342 
! Gamma  !      0                0                0                0                
! Port Impedance  50               0                50               0                

1.33             0.968532206250282 -32.9556812728304 0.0760570780582029 78.3859594026398 0.0760570780404994 78.385959407952  0.968853871862553 -32.788632017416 
! Gamma  !      0                0                0                0                
! Port Impedance  50               0                50               0                

1.34             0.967015702766136 -33.3867038906783 0.077472729038504 78.6289478845598 0.07747272907003 78.6289478764684 0.967355238447619 -33.217149415419 
! Gamma  !      0                0                0                0                
! Port Impedance  50               0                50               0                

1.35             0.965434282830801 -33.8237898285173 0.0789522136408986 78.869614068735  0.0789522136359478 78.8696140701693 0.965792587130862 -33.6516869955441 
! Gamma  !      0                0                0                0                
! Port Impedance  50               0                50               0                

1.36             0.963785744775657 -34.2670837029409 0.0804988827682336 79.1065437018532 0.0804988827493415 79.1065437078846 0.964163759782899 -34.0923835821492 
! Gamma  !      0                0                0                0                
! Port Impedance  50               0                50               0                

1.37             0.962067831369513 -34.7167253709445 0.0821161521726989 79.3382927544576 0.0821161521742334 79.3382927541723 0.962466536071935 -34.5393833646656 
! Gamma  !      0                0                0                0                
! Port Impedance  50               0                50               0                

1.38             0.960278209350079 -35.1728676919406 0.0838075188755043 79.5633875093967 0.0838075188883041 79.5633875060974 0.960698627287316 -34.9928361550425 
! Gamma  !      0                0                0                0                
! Port Impedance  50               0                50               0                

1.39             0.958414473181395 -35.6356672712116 0.0855765507440442 79.7803377096764 0.085576550743217 79.7803377096085 0.958857672454141 -35.4528977857417 
! Gamma  !      0                0                0                0                
! Port Impedance  50               0                50               0                

1.4              0.956474137794212 -36.1052871918237 0.0874268888206247 79.9876438895849 0.0874268888132145 79.9876438918641 0.956941233105451 -35.9197302564062 
! Gamma  !      0                0                0                0                
! Port Impedance  50               0                50               0                

1.41             0.954454631484277 -36.5818986586678 0.0893622498264528 80.1838048258247 0.0893622498211739 80.183804827711  0.954946787815079 -36.393502148527 
! Gamma  !      0                0                0                0                
! Port Impedance  50               0                50               0                

1.42             0.95235329993771 -37.0656726365952 0.0913864184072102 80.3673294458369 0.0913864183864213 80.3673294522514 0.952871727849795 -36.8743888268125 
! Gamma  !      0                0                0                0                
! Port Impedance  50               0                50               0                

1.43             0.950167381243993 -37.5567983153742 0.0935032680028944 80.5367352968548 0.0935032680037212 80.5367352968604 0.950713349557871 -37.3625727732312 
! Gamma  !      0                0                0                0                
! Port Impedance  50               0                50               0                

1.44             0.947894021307906 -38.0554635332528 0.0957167438027683 80.6905644437353 0.0957167437805686 80.6905644504452 0.948468851059314 -37.858243849361 
! Gamma  !      0                0                0                0                
! Port Impedance  50               0                50               0                

1.45             0.945530254855277 -38.5618676049008 0.0980308787535965 80.8273832748213 0.0980308787477276 80.8273832766958 0.946135325542808 -38.3615993878646 
! Gamma  !      0                0                0                0                
! Port Impedance  50               0                50               0                

1.46             0.943073005245939 -39.076216748998 0.100449793309687 80.945789381193  0.100449793304064 80.9457893823686 0.943709755923355 -38.8728449051638 
! Gamma  !      0                0                0                0                
! Port Impedance  50               0                50               0                

1.47             0.940519082859249 -39.5987213314766 0.102977696659649 81.0444171042146 0.102977696665076 81.0444171021907 0.941189010526942 -39.3921938805256 
! Gamma  !      0                0                0                0                
! Port Impedance  50               0                50               0                

1.48             0.937865157118091 -40.1296151898282 0.105618911193467 81.1219314447743 0.105618911189599 81.1219314461548 0.938569835348265 -39.9198683719466 
! Gamma  !      0                0                0                0                
! Port Impedance  50               0                50               0                

1.49             0.935107797402546 -40.6691182886765 0.108377839336569 81.17704789877   0.108377839340897 81.1770478977496 0.935848854376098 -40.4560990845711 
! Gamma  !      0                0                0                0                
! Port Impedance  50               0                50               0                

1.5              0.932243417374686 -41.2174790367619 0.111259011598374 81.2085139031394 0.111259011603726 81.2085139026771 0.933022559764962 -41.0011258453977 
! Gamma  !      0                0                0                0                
! Port Impedance  50               0                50               0                

1.51             0.929268318838025 -41.7749365377745 0.114267052627018 81.2151271055592 0.114267052621245 81.2151271070862 0.930087313274536 -41.5551977917621 
! Gamma  !      0                0                0                0                
! Port Impedance  50               0                50               0                

1.52             0.926178638211306 -42.3417601470458 0.117406725939305 81.1957167881654 0.11740672592999 81.1957167888817 0.927039337208929 -42.1185738601369 
! Gamma  !      0                0                0                0                
! Port Impedance  50               0                50               0                

1.53             0.922970388897595 -42.918215077159 0.120682902193338 81.1491590806944 0.120682902183543 81.1491590830962 0.923874716906712 -42.6915231123188 
! Gamma  !      0                0                0                0                
! Port Impedance  50               0                50               0                

1.54             0.919639434035847 -43.5045820927394 0.1241005822013  81.0743666100591 0.124100582200155 81.07436661006   0.920589395679368 -43.2743251913254 
! Gamma  !      0                0                0                0                
! Port Impedance  50               0                50               0                

1.55             0.916181495277578 -44.1011506855897 0.127664891288506 80.9702899335962 0.127664891294614 80.9702899331323 0.917179174456867 -43.8672708364093 
! Gamma  !      0                0                0                0                
! Port Impedance  50               0                50               0                

1.56             0.912592147437338 -44.7082227805246 0.131381083568787 80.8359139298629 0.131381083565478 80.835913931427  0.913639710436803 -44.4706625132651 
! Gamma  !      0                0                0                0                
! Port Impedance  50               0                50               0                

1.57             0.90886681704305 -45.3261146027811 0.135254542192795 80.6702548255741 0.135254542200749 80.6702548246382 0.909966516574521 -45.0848150985383 
! Gamma  !      0                0                0                0                
! Port Impedance  50               0                50               0                

1.58             0.905000791124199 -45.9551517402716 0.139290771068895 80.4723602897509 0.139290771089742 80.4723602861689 0.906154963115593 -45.7100566698668 
! Gamma  !      0                0                0                0                
! Port Impedance  50               0                50               0                

1.59             0.900989213578756 -46.5956738491271 0.143495394177831 80.2413051293385 0.143495394141283 80.2413051406819 0.902200277782528 -46.3467294467499 
! Gamma  !      0                0                0                0                
! Port Impedance  50               0                50               0                

1.6              0.8968270761932  -47.2480422094658 0.14787415580453 79.9761860347013 0.147874155835356 79.9761860280452 0.898097545705428 -46.9951909611907 
! Gamma  !      0                0                0                0                
! Port Impedance  50               0                50               0                

1.61             0.892509248865226 -47.9126232779404 0.152432892680656 79.6761270958199 0.152432892660965 79.6761271010509 0.893841715040377 -47.6558152082509 
! Gamma  !      0                0                0                0                
! Port Impedance  50               0                50               0                

1.62             0.888030451721279 -48.5898095688619 0.157177542663604 79.3402690871224 0.15717754269019 79.3402690823382 0.889427594391293 -48.3289942955327 
! Gamma  !      0                0                0                0                
! Port Impedance  50               0                50               0                

1.63             0.883385276075746 -49.2800093768527 0.162114117703956 78.9677730008024 0.162114117695067 78.9677730036547 0.884849857360347 -49.015140032628 
! Gamma  !      0                0                0                0                
! Port Impedance  50               0                50               0                

1.64             0.878568178898544 -49.9836539342524 0.167248691075176 78.5578163083369 0.167248691028177 78.5578163107981 0.880103042722112 -49.714685977819 
! Gamma  !      0                0                0                0                
! Port Impedance  50               0                50               0                

1.65             0.873573488895179 -50.7011965363554 0.172587374032902 78.1095929573833 0.172587374083595 78.1095929330556 0.875181555902302 -50.4280898847268 
! Gamma  !      0                0                0                0                
! Port Impedance  50               0                50               0                

1.66             0.868395406150902 -51.4331165124599 0.178136291720791 77.6223122688176 0.178136291690346 77.6223122811139 0.870079668342867 -51.1558361393399 
! Gamma  !      0                0                0                0                
! Port Impedance  50               0                50               0                

1.67             0.863027986306344 -52.1799300230544 0.183901565616037 77.0951948573582 0.183901565582485 77.0951948652939 0.864791513014796 -51.8984389120698 
! Gamma  !      0                0                0                0                
! Port Impedance  50               0                50               0                

1.68             0.857465181995153 -52.9421686100745 0.189889254025645 76.5274832192155 0.189889253756978 76.5274832730192 0.859311088524891 -52.6564454098707 
! Gamma  !      0                0                0                0                
! Port Impedance  50               0                50               0                

1.69             0.851700772424593 -53.7204206577143 0.196105356870936 75.9184260625761 0.196105356873552 75.9184260599969 0.853632240646706 -53.4304401657136 
! Gamma  !      0                0                0                0                
! Port Impedance  50               0                50               0                

1.7              0.845728419153873 -54.5152983858903 0.202555739641586 75.2672940709126 0.202555739593877 75.2672940835278 0.847748664304654 -54.2210489720194 
! Gamma  !      0                0                0                0                
! Port Impedance  50               0                50               0                

1.71             0.839541604921296 -55.3274715119584 0.209246117526221 74.573369118079  0.209246117530515 74.5733691175357 0.841653880730553 -55.0289441567914 
! Gamma  !      0                0                0                0                
! Port Impedance  50               0                50               0                

1.72             0.83313363571961 -56.157661438415 0.216181998944853 73.8359495201914 0.216181998948912 73.8359495203433 0.835341222106132 -55.8548499259399 
! Gamma  !      0                0                0                0                
! Port Impedance  50               0                50               0                

1.73             0.826497651455927 -57.0066289715603 0.223368614967978 73.0543587134305 0.223368614908136 73.0543587250159 0.828803816606326 -56.6995481991318 
! Gamma  !      0                0                0                0                
! Port Impedance  50               0                50               0                

1.74             0.819626527174512 -57.8752213065193 0.230810906074922 72.2279296840303 0.230810906099768 72.2279296813572 0.822034541112626 -57.5638860325504 
! Gamma  !      0                0                0                0                
! Port Impedance  50               0                50               0                

1.75             0.812512876077618 -58.7643579506407 0.238513440884967 71.3560151862978 0.238513440797961 71.3560151966921 0.815025992734777 -58.448782473795 
! Gamma  !      0                0                0                0                
! Port Impedance  50               0                50               0                

1.76             0.805149048850497 -59.6750152159426 0.246480328304701 70.4379981231181 0.246480328307426 70.4379981232333 0.807770458033984 -59.3552365264375 
! Gamma  !      0                0                0                0                
! Port Impedance  50               0                50               0                

1.77             0.79752700538178 -60.6082797612385 0.254715195939553 69.4732745180641 0.25471519593286 69.4732745128936 0.800259838737799 -60.2843365608738 
! Gamma  !      0                0                0                0                
! Port Impedance  50               0                50               0                

1.78             0.789638310588069 -61.5653274824895 0.263221085571298 68.4612667687867 0.263221086030239 68.4612667208496 0.79248560698546 -61.2372693738395 
! Gamma  !      0                0                0                0                
! Port Impedance  50               0                50               0                

1.79             0.781474044801535 -62.5474473889628 0.272000390863201 67.4014187394569 0.27200039063115 67.4014187571644 0.784438730961975 -62.215330617682 
! Gamma  !      0                0                0                0                
! Port Impedance  50               0                50               0                

1.8              0.773024740280041 -63.5560459767814 0.281054766497495 66.2931991264049 0.2810547650279  66.2931993063452 0.776109602717772 -63.219935781675 
! Gamma  !      0                0                0                0                
! Port Impedance  50               0                50               0                

1.81             0.764280294419176 -64.5926649662835 0.29038504214496 65.1361000420125 0.290385041000928 65.1361001728585 0.767487951508654 -64.2526313058678 
! Gamma  !      0                0                0                0                
! Port Impedance  50               0                50               0                

1.82             0.755229889502912 -65.6589849591948 0.299991127355666 63.9296374158549 0.299991128027757 63.9296373565563 0.758562766059691 -65.31511078854  
! Gamma  !      0                0                0                0                
! Port Impedance  50               0                50               0                

1.83             0.745861869014293 -66.7568642416617 0.309871928649655 62.6733464342825 0.30987192864951 62.6733464343084 0.749322170885833 -66.4092212021215 
! Gamma  !      0                0                0                0                
! Port Impedance  50               0                50               0                

1.84             0.736163712979892 -67.8883080717415 0.32002519385161 61.3667939560463 0.320025193699572 61.3667939742101 0.739753381246485 -67.5369837686191 
! Gamma  !      0                0                0                0                
! Port Impedance  50               0                50               0                

1.85             0.726121874042344 -69.0555291658678 0.33044743949518 60.0095627326886 0.330447439473867 60.0095627347526 0.729842569127162 -68.7006070569477 
! Gamma  !      0                0                0                0                
! Port Impedance  50               0                50               0                

1.86             0.715721727144521 -70.2609430830607 0.34113380206041 58.60125964152   0.341133802390654 58.6012596076344 0.719574791048153 -69.9025019654868 
! Gamma  !      0                0                0                0                
! Port Impedance  50               0                50               0                

1.87             0.704947494469943 -71.5071851054416 0.352077896656942 57.1415151485039 0.352077896669107 57.1415151445117 0.708933918804914 -71.1453006489006 
! Gamma  !      0                0                0                0                
! Port Impedance  50               0                50               0                
