! Touchstone file from project Orthogonal_PIFA_Free_Space
! Exported from HFSS 2017.0.0
! Variables:
!  A = 0.19mm
!  Airbox_dist = 125mm
!  Ant_Shift = -0.0300000000000002mm
!  Antenna_Offset = 3.5mm
!  Antenna_Trace_Width = 1.48mm
!  E_X = 250mm
!  E_Y = 250mm
!  E_Z = 2mm
!  Feed_Length = 0.148mm
!  Feed_Offset = -4.94mm
!  Feed_Width = 1.48mm
!  Length1 = 27.5mm
!  Length2 = 4.9mm
!  VirtualObject_dist = 12.4914mm
!  d1 = 1.3mm
!  d2 = 4.6mm
!  d3 = 5.49mm
!  deltaY = 50mm
!  sep = 10mm
!  subH = 62mil
!  subX = 49.4mm
!  subY = 98.8mm
!  t = 80mm
# GHZ S MA R 50.000000
! Terminal data exported
! Port[1] = Cylinder1_1_T1
! Port[2] = Cylinder1_T1
1.5              0.947816395493743 42.6854826667789 0.0534018809185746 108.443718315245 0.0533728797949357 108.454493673159 0.957103967788184 40.9743817613818 
! Port Impedance50               0                0                0                0                0                50               0                

1.50954773869347 0.947057492235414 37.1978889022362 0.0552439603291856 102.707052164976 0.0552390878620801 102.694596366199 0.95822510420308 35.3163631836094 
! Port Impedance50               0                0                0                0                0                50               0                

1.51909547738693 0.946057740000584 31.7424154079399 0.0571909538134426 96.9772915759574 0.0572063376276366 96.9479714298944 0.958316616704762 29.6936828420756 
! Port Impedance50               0                0                0                0                0                50               0                

1.5286432160804  0.944865793225031 26.315618441735  0.0592467612315414 91.2532762885549 0.0592784309997852 91.212581573603  0.957553030820759 24.1061850988741 
! Port Impedance50               0                0                0                0                0                50               0                

1.53819095477387 0.943521312390198 20.9139422052795 0.0614152255033874 85.5337046148753 0.0614591885683777 85.4863065426648 0.956096909173964 18.5521437657159 
! Port Impedance50               0                0                0                0                0                50               0                

1.54773869346734 0.942055700077932 15.5337877469138 0.0637001667617206 79.8171790692839 0.0637524807010981 79.7669927158147 0.954094473505728 13.0285374109002 
! Port Impedance50               0                0                0                0                0                50               0                

1.5572864321608  0.940492910112196 10.171569851907  0.0661054181843537 74.1022365308324 0.0661622595553316 74.0524850095894 0.951672823200406 7.53132871743767 
! Port Impedance50               0                0                0                0                0                50               0                

1.56683417085427 0.93885028621596 4.82376318104741 0.0686348600192767 68.3873657972459 0.0686925885354988 68.3406443974845 0.94893852175363 2.05573434509305 
! Port Impedance50               0                0                0                0                0                50               0                

1.57638190954774 0.937139398290811 -0.513061033553525 0.0712924488490168 62.6710157742952 0.0713476662606323 62.6293547102993 0.945977288170026 -3.40352371155644 
! Port Impedance50               0                0                0                0                0                50               0                

1.58592964824121 0.935366853917936 -5.84220646311888 0.0740822397018782 56.9515974983492 0.0741318426831363 56.9165222949652 0.942854536386719 -8.85199050317835 
! Port Impedance50               0                0                0                0                0                50               0                

1.59547738693467 0.93353507007034 -11.1668301428436 0.0770083991492957 51.2274828816266 0.0770496255521227 51.2000717474527 0.939616536375671 -14.295276652439 
! Port Impedance50               0                0                0                0                0                50               0                

1.60502512562814 0.931642995554829 -16.4899268484339 0.0800752080167899 45.4970026309142 0.0801056759243186 45.4779404388938 0.936292012123289 -19.73888354514  
! Port Impedance50               0                0                0                0                0                50               0                

1.61457286432161 0.929686778671298 -21.8143184418799 0.0832870527961404 39.7584453080387 0.0833047919036537 39.7480740142604 0.932894034434086 -25.1880546168549 
! Port Impedance50               0                0                0                0                0                50               0                

1.62412060301508 0.927660377301556 -27.142647360588 0.0866484053064737 34.0100590205609 0.086651880263143 34.0084245096213 0.929422104230549 -30.6476516994478 
! Port Impedance50               0                0                0                0                0                50               0                

1.63366834170854 0.925556110415539 -32.477373535088 0.0901637906390656 28.250056771483  0.0901519160959202 28.2569522268307 0.925864351421451 -36.1220553480974 
! Port Impedance50               0                0                0                0                0                50               0                

1.64321608040201 0.923365151069311 -37.8207741182185 0.0938377439502513 22.4766260582477 0.0938098911722301 22.4916320257637 0.922199794352699 -41.6150882639504 
! Port Impedance50               0                0                0                0                0                50               0                

1.65276381909548 0.921077961584325 -43.174945491677 0.0976747572356132 16.6879428898011 0.0976307522439171 16.710464240179  0.91840061571633 -47.1299612000426 
! Port Impedance50               0                0                0                0                0                50               0                

1.66231155778894 0.918684671916431 -48.5418070844052 0.101679217800995 10.8821899849615 0.101619331113978 10.91148999276   0.914434413969212 -52.6692409586323 
! Port Impedance50               0                0                0                0                0                50               0                

1.67185929648241 0.916175402382291 -53.9231065928269 0.10585534069466 5.05757853307347 0.105780268831143 5.09281028456015 0.910266386866262 -58.2348401597696 
! Port Impedance50               0                0                0                0                0                50               0                

1.68140703517588 0.913540532011333 -59.3204262373648 0.110207097816213 -0.787627443693174 0.110117936816683 -0.747392119546053 0.905861398112947 -63.8280283224071 
! Port Impedance50               0                0                0                0                0                50               0                

1.69095477386935 0.910770913904701 -64.7351897251815 0.114738146701409 -6.6550853621683 0.114636358014158 -6.61082926990717 0.901185872025998 -69.4494634268435 
! Port Impedance50               0                0                0                0                0                50               0                

1.70050251256281 0.907858039155296 -70.168669617942 0.119451762034128 -12.5463483987207 0.11933913121013 -12.4990845179578 0.896209457008257 -75.0992425354213 
! Port Impedance50               0                0                0                0                0                50               0                

1.71005025125628 0.904794151140998 -75.6219948278048 0.124350772716755 -18.4628413285351 0.124229361464094 -18.4135904067313 0.890906398763662 -80.7769692887746 
! Port Impedance50               0                0                0                0                0                50               0                

1.71959798994975 0.901572312355885 -81.0961579868287 0.129437506833475 -24.4058392687732 0.12930959910336 -24.3556093770538 0.885256570000976 -86.4818352503765 
! Port Impedance50               0                0                0                0                0                50               0                

1.72914572864322 0.89818642638804 -86.5920224563153 0.134713746107963 -30.3764504851508 0.13458178902148 -30.3262184717191 0.879246115484039 -92.2127112464847 
! Port Impedance50               0                0                0                0                0                50               0                

1.73869346733668 0.894631218173135 -92.1103287648763 0.140180690573328 -36.3756040746855 0.14004723114991 -36.3262988695105 0.872867689222523 -97.9682441522021 
! Port Impedance50               0                0                0                0                0                50               0                

1.74824120603015 0.890902176228683 -97.6517002884094 0.145838933258221 -42.4040429082896 0.14570655206891 -42.3565306481476 0.866120282898774 -103.746954107511 
! Port Impedance50               0                0                0                0                0                50               0                

1.75778894472362 0.88699546117722 -103.216648012666 0.151688443885457 -48.4623217586323 0.15155968691898 -48.417392713547 0.859008669055375 -109.547326984347 
! Port Impedance50               0                0                0                0                0                50               0                

1.76733668341709 0.882907785467725 -108.805574250203 0.157728560006463 -54.5508101100026 0.157605870194479 -54.5091674011349 0.851542506493012 -115.367897104151 
! Port Impedance50               0                0                0                0                0                50               0                

1.77688442211055 0.878636269772123 -114.418775218462 0.163957983753043 -60.6696988022599 0.163843633741784 -60.6319489078684 0.843735176180417 -121.207315719971 
! Port Impedance50               0                0                0                0                0                50               0                

1.78643216080402 0.874178282038315 -120.056442424324 0.170374782523673 -66.8190094414276 0.170270810391853 -66.7856544921655 0.835602431684492 -127.064401583976 
! Port Impedance50               0                0                0                0                0                50               0                

1.79597989949749 0.869531265596337 -125.718662842286 0.17697639242293 -72.9986054367128 0.176884542120042 -72.9700373046289 0.827160957417931 -132.938170947267 
! Port Impedance50               0                0                0                0                0                50               0                

1.80552763819095 0.864692563017428 -131.405417917665 0.1837596240708  -79.2082035980028 0.183681292377049 -79.184699785419 0.818426930523564 -138.827845496538 
! Port Impedance50               0                0                0                0                0                50               0                

1.81507537688442 0.85965924259898 -137.116581472167 0.190720671378694 -85.4473854302763 0.190656863160641 -85.4291067652492 0.80941467845862 -144.73283793482 
! Port Impedance50               0                0                0                0                0                50               0                

1.82462311557789 0.854427934376773 -142.851916635731 0.197855124905828 -91.7156075585389 0.197806418354477 -91.7025977027462 0.800135515395439 -150.65271608827 
! Port Impedance50               0                0                0                0                0                50               0                

1.83417085427136 0.848994682436918 -148.611071975147 0.205157992304588 -98.0122110676301 0.205124515690828 -98.0043978399068 0.790596827775268 -156.587147515859 
! Port Impedance50               0                0                0                0                0                50               0                

1.84371859296482 0.843354820001163 -154.393577035437 0.212623728980758 -104.336429901967 0.212605150243358 -104.333628415864 0.780801464042041 -162.535827584417 
! Port Impedance50               0                0                0                0                0                50               0                

1.85326633165829 0.837502873276711 -160.19883755387 0.220246282293991 -110.687398799692 0.220241812485985 -110.689316405743 0.770747466745478 -168.498394835736 
! Port Impedance50               0                0                0                0                0                50               0                

1.86281407035176 0.831432499379688 -166.02613064758 0.228019152294201 -117.064161497306 0.228027563554317 -117.070404509506 0.760428167422022 -174.474338211311 
! Port Impedance50               0                0                0                0                0                50               0                

1.87236180904523 0.825136462742451 -171.874600313048 0.23593547106062 -123.465680104423 0.235955129350123 -123.475762275054 0.749832646133761 179.537098693128 
! Port Impedance50               0                0                0                0                0                50               0                

1.88190954773869 0.818606653283531 -177.743253607271 0.243988101169019 -129.890846590405 0.244017013527318 -129.904199277312 0.738946538241302 173.537010717449 
! Port Impedance50               0                0                0                0                0                50               0                

1.89145728643216 0.811834148246642 176.369042096147 0.252169751720649 -136.338497230284 0.252205627256475 -136.354481175413 0.727753150912124 167.526915684962 
! Port Impedance50               0                0                0                0                0                50               0                

1.90100502512563 0.804809318008187 170.463560370949 0.260473107876345 -142.807430621604 0.260513431142134 -142.825349229112 0.71623483135428 161.508824515851 
! Port Impedance50               0                0                0                0                0                50               0                

1.9105527638191  0.797521974342054 164.541715121332 0.268890967203646 -149.296429515857 0.268933082021734 -149.315543482302 0.704374508730606 155.485291336561 
! Port Impedance50               0                0                0                0                0                50               0                

1.92010050251256 0.78996155768066 158.605057708186 0.277416373709539 -155.80428623401 0.277457574958033 -155.823829342743 0.692157313778879 149.459438740794 
! Port Impedance50               0                0                0                0                0                50               0                

1.92964824120603 0.78211735792763 152.655271492796 0.286042738604258 -162.329830901381 0.286080368960104 -162.349026749127 0.679572166620093 143.434954536702 
! Port Impedance50               0                0                0                0                0                50               0                

1.9391959798995  0.773978761506414 146.694163551768 0.294763936032993 -168.871961207131 0.294795484243299 -168.890040584436 0.666613216721606 137.416057953302 
! Port Impedance50               0                0                0                0                0                50               0                

1.94874371859296 0.76553551575043 140.723653426458 0.303574362553412 -175.429671945659 0.303597559495716 -175.445890546278 0.653281021977639 131.40743531677  
! Port Impedance50               0                0                0                0                0                50               0                

1.95829145728643 0.756778000646977 134.745758907272 0.312468951188405 177.997917689915 0.312481859813842 177.984261599998 0.639583368050189 125.41414750741  
! Port Impedance50               0                0                0                0                0                50               0                

1.9678391959799  0.747697497517974 128.762579010419 0.321443134362769 171.411541152712 0.321444229613521 171.401089515367 0.625535654710499 119.441513861446 
! Port Impedance50               0                0                0                0                0                50               0                

1.97738693467337 0.738286444582932 122.776274469768 0.330492754583982 164.811767815488 0.330480989549718 164.805086449575 0.61116081130406 113.494979329458 
! Port Impedance50               0                0                0                0                0                50               0                

1.98693467336683 0.72853867054813 116.789046222758 0.339613926757112 158.198993907953 0.339588781686999 158.196557527345 0.596488745107358 107.579973374208 
! Port Impedance50               0                0                0                0                0                50               0                

1.9964824120603  0.71844959933661 110.803112497703 0.348802860802702 151.573441898763 0.34876437211423 151.575620944409 0.581555369269606 101.70177004877  
! Port Impedance50               0                0                0                0                0                50               0                

2.00603015075377 0.708016421639213 104.820685191205 0.358055657056052 144.935168340551 0.358004424166438 144.942218079698 0.56640129564422 95.8653587849033 
! Port Impedance50               0                0                0                0                0                50               0                

2.01557788944724 0.697238231850128 98.8439462423784 0.36736808921588 138.284079439562 0.367305257847396 138.296131753648 0.551070306967769 90.0753345959113 
! Port Impedance50               0                0                0                0                0                50               0                

2.0251256281407  0.686116131809514 92.8750246541883 0.376735390112714 131.61995297089  0.376662611665713 131.637011201126 0.535607738841065 84.3358147333895 
! Port Impedance50               0                0                0                0                0                50               0                

2.03467336683417 0.674653305250739 86.9159746775879 0.386152054344787 124.942464720693 0.386071421961567 124.964401866714 0.520058903221758 78.6503865155174 
! Port Impedance50               0                0                0                0                0                50               0                

2.04422110552764 0.662855068613699 80.9687554652243 0.395611669236128 118.25121744126  0.395525632258468 118.277777914582 0.504467672353433 73.0220883220449 
! Port Impedance50               0                0                0                0                0                50               0                

2.05376884422111 0.650728904689985 75.0352122296311 0.405106782151263 111.545770350537 0.405018041760245 111.576575373403 0.488875317897892 67.4534229135383 
! Port Impedance50               0                0                0                0                0                50               0                

2.06331658291457 0.638284485272703 69.1170586236767 0.414628808552498 104.825667452203 0.414540198418932 104.86022406766  0.473319668448514 61.9463995513148 
! Port Impedance50               0                0                0                0                0                50               0                

2.07286432160804 0.625533687584159 63.2158597207173 0.424167981837519 98.0904633278751 0.424082338546292 98.1281768538673 0.457834613970083 56.5025990921151 
! Port Impedance50               0                0                0                0                0                50               0                

2.08241206030151 0.612490606868319 57.333014633249  0.43371334331846 91.3397454841162 0.43363337209819 91.3799351093159 0.442449952104658 51.1232544601803 
! Port Impedance50               0                0                0                0                0                50               0                

2.09195979899497 0.599171564398805 51.4697374976307 0.443252768876624 84.5731527554884 0.443180910706197 84.6150698444883 0.427191541917022 45.8093377352764 
! Port Impedance50               0                0                0                0                0                50               0                

2.10150753768844 0.58559510659956 45.6270352938939 0.452773027845639 77.7903896205916 0.452711334267672 77.8332381782539 0.412081707626023 40.5616445458614 
! Port Impedance50               0                0                0                0                0                50               0                

2.11105527638191 0.571781987400378 39.8056807870441 0.462259869397452 70.9912365524637 0.462209891304599 71.034195198596  0.39713981916414 35.3808664770775 
! Port Impedance50               0                0                0                0                0                50               0                

2.12060301507538 0.557755122782988 34.0061787901316 0.471698131906346 64.1755566904357 0.471660828157605 64.2178014227329 0.382382968078223 30.2676427176292 
! Port Impedance50               0                0                0                0                0                50               0                

2.13015075376884 0.543539504139495 28.2287239763431 0.481071871197907 57.3432991967708 0.481047542169123 57.3840261769769 0.367826655722128 25.2225830938639 
! Port Impedance50               0                0                0                0                0                50               0                

2.13969849246231 0.529162055951407 22.4731486192501 0.490364504025461 50.4944996683022 0.490352754126408 50.532947256955  0.353485414917765 20.2462559026434 
! Port Impedance50               0                0                0                0                0                50               0                

2.14924623115578 0.514651423719575 16.7388589229713 0.49955896338216 43.6292779360682 0.499558695231459 43.6647472261601 0.339373295172448 15.3391355157678 
! Port Impedance50               0                0                0                0                0                50               0                

2.15879396984925 0.500037680249419 11.0247590152684 0.508637862249169 36.7478335302725 0.508647303659506 36.7797066887308 0.325504154092543 10.5015065853924 
! Port Impedance50               0                0                0                0                0                50               0                

2.16834170854271 0.485351942412288 5.32916220440391 0.517583662072535 29.850439036216  0.517600425350422 29.8781948512825 0.311891712944786 5.73332386637108 
! Port Impedance50               0                0                0                0                0                50               0                

2.17788944723618 0.470625896310457 -0.350310280516019 0.526378841698563 22.9374315361825 0.526400013104248 22.9606576837286 0.298549351701038 1.03402924222764 
! Port Impedance50               0                0                0                0                0                50               0                

2.18743718592965 0.455891236160927 -6.01684217798582 0.535006061785858 16.0092023329998 0.535028317431832 16.0276040092678 0.28548963783555 -3.59766946273926 
! Port Impedance50               0                0                0                0                0                50               0                

2.19698492462312 0.441179030814622 -11.6745451684111 0.543448319000753 9.06618518671594 0.543468062088383 9.07958990167775 0.272723603172122 -8.16404990689863 
! Port Impedance50               0                0                0                0                0                50               0                

2.20653266331658 0.426519041125026 -17.3285898330539 0.551689083761805 2.10884336351067 0.551702596949302 2.11720184028445 0.260259803683316 -12.6686452739825 
! Port Impedance50               0                0                0                0                0                50               0                

2.21608040201005 0.411939020729637 -22.9853421402469 0.559712415095545 -4.86234411265253 0.559716021022131 -4.85896083868264 0.248103217580551 -17.1165177999954 
! Port Impedance50               0                0                0                0                0                50               0                

2.22562814070352 0.39746404147996 -28.6525029699558 0.567503046440719 -11.8468965124757 0.567493269042762 -11.848303563027 0.236254056179972 -21.5145178702535 
! Port Impedance50               0                0                0                0                0                50               0                

2.23517587939698 0.383115892000577 -34.339248609645 0.575046437084994 -18.8443451652324 0.575020156345324 -18.850253503027 0.224706578293924 -25.8715096241016 
! Port Impedance50               0                0                0                0                0                50               0                

2.24472361809045 0.368912602983827 -40.056371148546 0.582328785368773 -25.8542462600991 0.582283378528512 -25.8642751319052 0.213448010257715 -30.1985455904648 
! Port Impedance50               0                0                0                0                0                50               0                

2.25427135678392 0.354868155301737 -45.8164193501759 0.589337001808703 -32.8761919610418 0.589270464805714 -32.8898835668961 0.202457677927066 -34.508978374511 
! Port Impedance50               0                0                0                0                0                50               0                

2.26381909547739 0.340992426570871 -51.6338429201415 0.596058642776196 -39.9098191036631 0.595969686699087 -39.9266549073116 0.19170645208661 -38.8185078936002 
! Port Impedance50               0                0                0                0                0                50               0                

2.27336683417085 0.327291428526045 -57.5251460424651 0.602481808154948 -46.9548147834781 0.602369926745443 -46.9742328528454 0.181156593578161 -43.145178956692 
! Port Impedance50               0                0                0                0                0                50               0                

2.28291457286432 0.313767881954601 -63.5090594410725 0.608595009297585 -54.0109182372642 0.608460514918213 -54.032331002257 0.170762059518891 -47.5093668244741 
! Port Impedance50               0                0                0                0                0                50               0                

2.29246231155779 0.300422168957009 -69.6067436708003 0.61438701638631 -61.0779185603256 0.614231043314657 -61.1007303963904 0.160469299723706 -51.9338190506589 
! Port Impedance50               0                0                0                0                0                50               0                

2.30201005025126 0.28725369524076 -75.8420392490071 0.619846696756232 -68.155647986946 0.619671172096491 -68.1792720736732 0.150218537596599 -56.4438637987785 
! Port Impedance50               0                0                0                0                0                50               0                

2.31155778894472 0.274262689525909 -82.2417806239959 0.62496285765972 -75.243970679948 0.624770441511441 -75.2678446412749 0.13994549909025 -61.0679567677977 
! Port Impedance50               0                0                0                0                0                50               0                

2.32110552763819 0.261452464321712 -88.8361892292598 0.629724108161399 -82.3427672171899 0.62951810590143 -82.3663671197986 0.129583535509302 -65.8388416840343 
! Port Impedance50               0                0                0                0                0                50               0                

2.33065326633166 0.248832163043068 -95.6593532807479 0.634118755219378 -89.4519152156291 0.633903005796756 -89.4747675813584 0.119066092325477 -70.7957903143907 
! Port Impedance50               0                0                0                0                0                50               0                

2.34020100502513 0.236420021815492 -102.749783912604 0.638134748433266 -96.5712667843826 0.637913493422403 -96.5929583574083 0.10832952505172 -75.9887755269865 
! Port Impedance50               0                0                0                0                0                50               0                

2.34974874371859 0.224247176331937 -110.15100091077 0.641759686372143 -103.700623734092 0.641537425162129 -103.720808831098 0.0973163932461173 -81.4862760785839 
! Port Impedance50               0                0                0                0                0                50               0                

2.35929648241206 0.212362034738205 -117.912034045349 0.644980894830569 -110.839711677995 0.644762231741578 -110.858117036728 0.0859796749420689 -87.3903922507792 
! Port Impedance50               0                0                0                0                0                50               0                

2.36884422110553 0.200835195940323 -126.087608976738 0.647785583843693 -117.988154328133 0.647575073154663 -118.004581454104 0.0742891306609916 -93.8680013486573 
! Port Impedance50               0                0                0                0                0                50               0                
