! Touchstone file exported from HFSS 2019.1.0
!        File:           E:/matching network/HFSS/Ding_project/dipole_simulation/dipole_model.aedt
!        Generated:      1:41:45 PM  Nov 19, 2019
!        Design:         short_dipole
!        Project:        dipole_model
!        Setup:          Setup1
!        Solution:       Sweep
!
! Variables:
!        dipole_length = 6.25mm
!        gap = 0.0625mm
!        relative_spacing = 0
!        spacing = 0mm
!        thick = 0.125mm
!        wavelength = 125mm
!
# GHZ S MA R 50.000000
! Modal data exported
! Port[1] = 1:1
1                0.999999607034132 -1.76446488957579 
! Gamma         !               0                0                
! Port Impedance50               0                

1.01             0.999999599050485 -1.78215506529521 
! Gamma         !               0                0                
! Port Impedance50               0                

1.02             0.999999590480172 -1.7998466038575 
! Gamma         !               0                0                
! Port Impedance50               0                

1.03             0.999999581308239 -1.81753951894655 
! Gamma         !               0                0                
! Port Impedance50               0                

1.04             0.999999571519595 -1.83523382425192 
! Gamma         !               0                0                
! Port Impedance50               0                

1.05             0.999999561099002 -1.8529295334689 
! Gamma         !               0                0                
! Port Impedance50               0                

1.06             0.999999550031086 -1.87062666029859 
! Gamma         !               0                0                
! Port Impedance50               0                

1.07             0.999999538300328 -1.88832521844791 
! Gamma         !               0                0                
! Port Impedance50               0                

1.08             0.99999952589107 -1.90602522162967 
! Gamma         !               0                0                
! Port Impedance50               0                

1.09             0.999999512787512 -1.92372668356268 
! Gamma         !               0                0                
! Port Impedance50               0                

1.1              0.999999498973715 -1.94142961797175 
! Gamma         !               0                0                
! Port Impedance50               0                

1.11             0.999999484433599 -1.95913403858776 
! Gamma         !               0                0                
! Port Impedance50               0                

1.12             0.999999469150943 -1.97683995914773 
! Gamma         !               0                0                
! Port Impedance50               0                

1.13             0.999999453109388 -1.99454739339488 
! Gamma         !               0                0                
! Port Impedance50               0                

1.14             0.999999436292432 -2.01225635507867 
! Gamma         !               0                0                
! Port Impedance50               0                

1.15             0.999999418683436 -2.02996685795489 
! Gamma         !               0                0                
! Port Impedance50               0                

1.16             0.999999400265622 -2.04767891578569 
! Gamma         !               0                0                
! Port Impedance50               0                

1.17             0.999999381022069 -2.06539254233963 
! Gamma         !               0                0                
! Port Impedance50               0                

1.18             0.999999360935722 -2.08310775139178 
! Gamma         !               0                0                
! Port Impedance50               0                

1.19             0.999999339989384 -2.10082455672375 
! Gamma         !               0                0                
! Port Impedance50               0                

1.2              0.99999931816572 -2.11854297212374 
! Gamma         !               0                0                
! Port Impedance50               0                

1.21             0.999999295447257 -2.13626301138663 
! Gamma         !               0                0                
! Port Impedance50               0                

1.22             0.999999271816382 -2.15398468831402 
! Gamma         !               0                0                
! Port Impedance50               0                

1.23             0.999999247255348 -2.17170801671427 
! Gamma         !               0                0                
! Port Impedance50               0                

1.24             0.999999221746265 -2.1894330104026 
! Gamma         !               0                0                
! Port Impedance50               0                

1.25             0.999999195271111 -2.20715968320113 
! Gamma         !               0                0                
! Port Impedance50               0                

1.26             0.999999167811721 -2.22488804893893 
! Gamma         !               0                0                
! Port Impedance50               0                

1.27             0.999999139349798 -2.24261812145208 
! Gamma         !               0                0                
! Port Impedance50               0                

1.28             0.999999109866904 -2.26034991458375 
! Gamma         !               0                0                
! Port Impedance50               0                

1.29             0.999999079344466 -2.27808344218423 
! Gamma         !               0                0                
! Port Impedance50               0                

1.3              0.999999047763775 -2.29581871811104 
! Gamma         !               0                0                
! Port Impedance50               0                

1.31             0.999999015105986 -2.31355575622892 
! Gamma         !               0                0                
! Port Impedance50               0                

1.32             0.999998981352116 -2.33129457040993 
! Gamma         !               0                0                
! Port Impedance50               0                

1.33             0.999998946483048 -2.34903517453352 
! Gamma         !               0                0                
! Port Impedance50               0                

1.34             0.999998910479527 -2.36677758248657 
! Gamma         !               0                0                
! Port Impedance50               0                

1.35             0.999998873322167 -2.38452180816345 
! Gamma         !               0                0                
! Port Impedance50               0                

1.36             0.999998834991444 -2.40226786546607 
! Gamma         !               0                0                
! Port Impedance50               0                

1.37             0.999998795467698 -2.42001576830399 
! Gamma         !               0                0                
! Port Impedance50               0                

1.38             0.999998754731137 -2.43776553059442 
! Gamma         !               0                0                
! Port Impedance50               0                

1.39             0.999998712761832 -2.45551716626231 
! Gamma         !               0                0                
! Port Impedance50               0                

1.4              0.999998669539724 -2.4732706892404 
! Gamma         !               0                0                
! Port Impedance50               0                

1.41             0.999998625044616 -2.4910261134693 
! Gamma         !               0                0                
! Port Impedance50               0                

1.42             0.999998579256179 -2.50878345289753 
! Gamma         !               0                0                
! Port Impedance50               0                

1.43             0.99999853215395 -2.52654272148157 
! Gamma         !               0                0                
! Port Impedance50               0                

1.44             0.999998483717334 -2.54430393318598 
! Gamma         !               0                0                
! Port Impedance50               0                

1.45             0.999998433925602 -2.56206710198337 
! Gamma         !               0                0                
! Port Impedance50               0                

1.46             0.999998382757893 -2.57983224185454 
! Gamma         !               0                0                
! Port Impedance50               0                

1.47             0.999998330193214 -2.59759936678851 
! Gamma         !               0                0                
! Port Impedance50               0                

1.48             0.999998276210438 -2.61536849078256 
! Gamma         !               0                0                
! Port Impedance50               0                

1.49             0.99999822078831 -2.63313962784233 
! Gamma         !               0                0                
! Port Impedance50               0                

1.5              0.999998163905438 -2.65091279198187 
! Gamma         !               0                0                
! Port Impedance50               0                

1.51             0.999998105540305 -2.66868799722368 
! Gamma         !               0                0                
! Port Impedance50               0                

1.52             0.999998045671256 -2.6864652575988 
! Gamma         !               0                0                
! Port Impedance50               0                

1.53             0.999997984276513 -2.70424458714684 
! Gamma         !               0                0                
! Port Impedance50               0                

1.54             0.999997921334161 -2.72202599991608 
! Gamma         !               0                0                
! Port Impedance50               0                

1.55             0.999997856822157 -2.7398095099635 
! Gamma         !               0                0                
! Port Impedance50               0                

1.56             0.99999779071833 -2.75759513135485 
! Gamma         !               0                0                
! Port Impedance50               0                

1.57             0.999997723000378 -2.77538287816473 
! Gamma         !               0                0                
! Port Impedance50               0                

1.58             0.999997653645868 -2.79317276447663 
! Gamma         !               0                0                
! Port Impedance50               0                

1.59             0.99999758263224 -2.810964804383  
! Gamma         !               0                0                
! Port Impedance50               0                

1.6              0.999997509936806 -2.8287590119853 
! Gamma         !               0                0                
! Port Impedance50               0                

1.61             0.999997435536746 -2.8465554013941 
! Gamma         !               0                0                
! Port Impedance50               0                

1.62             0.999997359409116 -2.86435398672908 
! Gamma         !               0                0                
! Port Impedance50               0                

1.63             0.999997281530842 -2.88215478211917 
! Gamma         !               0                0                
! Port Impedance50               0                

1.64             0.999997201878723 -2.89995780170254 
! Gamma         !               0                0                
! Port Impedance50               0                

1.65             0.99999712042943 -2.91776305962671 
! Gamma         !               0                0                
! Port Impedance50               0                

1.66             0.999997037159507 -2.93557057004859 
! Gamma         !               0                0                
! Port Impedance50               0                

1.67             0.999996952045373 -2.95338034713455 
! Gamma         !               0                0                
! Port Impedance50               0                

1.68             0.999996865063318 -2.97119240506049 
! Gamma         !               0                0                
! Port Impedance50               0                

1.69             0.999996776189511 -2.98900675801189 
! Gamma         !               0                0                
! Port Impedance50               0                

1.7              0.999996685399989 -3.00682342018388 
! Gamma         !               0                0                
! Port Impedance50               0                

1.71             0.999996592670667 -3.0246424057813 
! Gamma         !               0                0                
! Port Impedance50               0                

1.72             0.999996497977335 -3.04246372901877 
! Gamma         !               0                0                
! Port Impedance50               0                

1.73             0.999996401295658 -3.06028740412075 
! Gamma         !               0                0                
! Port Impedance50               0                

1.74             0.999996302601176 -3.07811344532161 
! Gamma         !               0                0                
! Port Impedance50               0                

1.75             0.999996201869306 -3.09594186686566 
! Gamma         !               0                0                
! Port Impedance50               0                

1.76             0.999996099075341 -3.11377268300728 
! Gamma         !               0                0                
! Port Impedance50               0                

1.77             0.999995994194449 -3.13160590801091 
! Gamma         !               0                0                
! Port Impedance50               0                

1.78             0.999995887201677 -3.14944155615117 
! Gamma         !               0                0                
! Port Impedance50               0                

1.79             0.999995778071949 -3.16727964171288 
! Gamma         !               0                0                
! Port Impedance50               0                

1.8              0.999995666780065 -3.18512017899119 
! Gamma         !               0                0                
! Port Impedance50               0                

1.81             0.999995553300706 -3.20296318229156 
! Gamma         !               0                0                
! Port Impedance50               0                

1.82             0.999995437608428 -3.22080866592987 
! Gamma         !               0                0                
! Port Impedance50               0                

1.83             0.999995319677669 -3.23865664423252 
! Gamma         !               0                0                
! Port Impedance50               0                

1.84             0.999995199482741 -3.2565071315364 
! Gamma         !               0                0                
! Port Impedance50               0                

1.85             0.999995076997842 -3.27436014218906 
! Gamma         !               0                0                
! Port Impedance50               0                

1.86             0.999994952197045 -3.29221569054869 
! Gamma         !               0                0                
! Port Impedance50               0                

1.87             0.999994825054304 -3.31007379098424 
! Gamma         !               0                0                
! Port Impedance50               0                

1.88             0.999994695543456 -3.32793445787545 
! Gamma         !               0                0                
! Port Impedance50               0                

1.89             0.999994563638216 -3.34579770561296 
! Gamma         !               0                0                
! Port Impedance50               0                

1.9              0.99999442931218 -3.36366354859831 
! Gamma         !               0                0                
! Port Impedance50               0                

1.91             0.999994292538828 -3.38153200124408 
! Gamma         !               0                0                
! Port Impedance50               0                

1.92             0.99999415329152 -3.39940307797387 
! Gamma         !               0                0                
! Port Impedance50               0                

1.93             0.9999940115435  -3.41727679322246 
! Gamma         !               0                0                
! Port Impedance50               0                

1.94             0.999993867267894 -3.43515316143582 
! Gamma         !               0                0                
! Port Impedance50               0                

1.95             0.999993720437711 -3.45303219707115 
! Gamma         !               0                0                
! Port Impedance50               0                

1.96             0.999993571025843 -3.47091391459702 
! Gamma         !               0                0                
! Port Impedance50               0                

1.97             0.999993419005066 -3.48879832849339 
! Gamma         !               0                0                
! Port Impedance50               0                

1.98             0.999993264348042 -3.50668545325169 
! Gamma         !               0                0                
! Port Impedance50               0                

1.99             0.999993107027317 -3.52457530337485 
! Gamma         !               0                0                
! Port Impedance50               0                

2                0.999992947015321 -3.54246789337742 
! Gamma         !               0                0                
! Port Impedance50               0                

2.01             0.999992784284369 -3.56036323778563 
! Gamma         !               0                0                
! Port Impedance50               0                

2.02             0.999992618806665 -3.57826135113743 
! Gamma         !               0                0                
! Port Impedance50               0                

2.03             0.999992450554298 -3.59616224798254 
! Gamma         !               0                0                
! Port Impedance50               0                

2.04             0.999992279499241 -3.61406594288258 
! Gamma         !               0                0                
! Port Impedance50               0                

2.05             0.999992105613357 -3.63197245041109 
! Gamma         !               0                0                
! Port Impedance50               0                

2.06             0.999991928868399 -3.64988178515362 
! Gamma         !               0                0                
! Port Impedance50               0                

2.07             0.999991749236001 -3.66779396170776 
! Gamma         !               0                0                
! Port Impedance50               0                

2.08             0.999991566687692 -3.68570899468328 
! Gamma         !               0                0                
! Port Impedance50               0                

2.09             0.999991381194887 -3.70362689870212 
! Gamma         !               0                0                
! Port Impedance50               0                

2.1              0.99999119272889 -3.72154768839849 
! Gamma         !               0                0                
! Port Impedance50               0                

2.11             0.999991001260897 -3.73947137841895 
! Gamma         !               0                0                
! Port Impedance50               0                

2.12             0.999990806761991 -3.75739798342248 
! Gamma         !               0                0                
! Port Impedance50               0                

2.13             0.999990609203149 -3.77532751808051 
! Gamma         !               0                0                
! Port Impedance50               0                

2.14             0.999990408555237 -3.79325999707704 
! Gamma         !               0                0                
! Port Impedance50               0                

2.15             0.999990204789012 -3.81119543510865 
! Gamma         !               0                0                
! Port Impedance50               0                

2.16             0.999989997875125 -3.82913384688464 
! Gamma         !               0                0                
! Port Impedance50               0                

2.17             0.999989787784119 -3.84707524712703 
! Gamma         !               0                0                
! Port Impedance50               0                

2.18             0.999989574486427 -3.86501965057067 
! Gamma         !               0                0                
! Port Impedance50               0                

2.19             0.999989357952379 -3.88296707196331 
! Gamma         !               0                0                
! Port Impedance50               0                

2.2              0.999989138152198 -3.90091752606564 
! Gamma         !               0                0                
! Port Impedance50               0                

2.21             0.999988915056001 -3.91887102765139 
! Gamma         !               0                0                
! Port Impedance50               0                

2.22             0.9999886886338  -3.93682759150738 
! Gamma         !               0                0                
! Port Impedance50               0                

2.23             0.999988458855499 -3.95478723243359 
! Gamma         !               0                0                
! Port Impedance50               0                

2.24             0.999988225690903 -3.97274996524326 
! Gamma         !               0                0                
! Port Impedance50               0                

2.25             0.999987989109711 -3.99071580476291 
! Gamma         !               0                0                
! Port Impedance50               0                

2.26             0.999987749081518 -4.00868476583246 
! Gamma         !               0                0                
! Port Impedance50               0                

2.27             0.999987505575817 -4.02665686330525 
! Gamma         !               0                0                
! Port Impedance50               0                

2.28             0.999987258561997 -4.04463211204817 
! Gamma         !               0                0                
! Port Impedance50               0                

2.29             0.999987008009349 -4.06261052694167 
! Gamma         !               0                0                
! Port Impedance50               0                

2.3              0.999986753887059 -4.08059212287986 
! Gamma         !               0                0                
! Port Impedance50               0                

2.31             0.999986496164213 -4.09857691477061 
! Gamma         !               0                0                
! Port Impedance50               0                

2.32             0.999986234809799 -4.11656491753555 
! Gamma         !               0                0                
! Port Impedance50               0                

2.33             0.999985969792701 -4.13455614611021 
! Gamma         !               0                0                
! Port Impedance50               0                

2.34             0.999985701081709 -4.15255061544404 
! Gamma         !               0                0                
! Port Impedance50               0                

2.35             0.999985428645509 -4.17054834050053 
! Gamma         !               0                0                
! Port Impedance50               0                

2.36             0.999985152452693 -4.18854933625724 
! Gamma         !               0                0                
! Port Impedance50               0                

2.37             0.999984872471753 -4.20655361770589 
! Gamma         !               0                0                
! Port Impedance50               0                

2.38             0.999984588671084 -4.22456119985242 
! Gamma         !               0                0                
! Port Impedance50               0                

2.39             0.999984301018985 -4.24257209771709 
! Gamma         !               0                0                
! Port Impedance50               0                

2.4              0.999984009483659 -4.26058632633453 
! Gamma         !               0                0                
! Port Impedance50               0                

2.41             0.999983714033213 -4.27860390075379 
! Gamma         !               0                0                
! Port Impedance50               0                

2.42             0.999983414635659 -4.29662483603848 
! Gamma         !               0                0                
! Port Impedance50               0                

2.43             0.999983111258915 -4.31464914726677 
! Gamma         !               0                0                
! Port Impedance50               0                

2.44             0.999982803870805 -4.33267684953151 
! Gamma         !               0                0                
! Port Impedance50               0                

2.45             0.999982492439059 -4.35070795794026 
! Gamma         !               0                0                
! Port Impedance50               0                

2.46             0.999982176931315 -4.36874248761543 
! Gamma         !               0                0                
! Port Impedance50               0                

2.47             0.999981857315118 -4.38678045369429 
! Gamma         !               0                0                
! Port Impedance50               0                

2.48             0.999981533557923 -4.40482187132906 
! Gamma         !               0                0                
! Port Impedance50               0                

2.49             0.999981205627093 -4.42286675568701 
! Gamma         !               0                0                
! Port Impedance50               0                

2.5              0.999980873489899 -4.4409151219505 
! Gamma         !               0                0                
! Port Impedance50               0                

2.51             0.999980537113524 -4.45896698531707 
! Gamma         !               0                0                
! Port Impedance50               0                

2.52             0.999980196465062 -4.47702236099951 
! Gamma         !               0                0                
! Port Impedance50               0                

2.53             0.999979851511517 -4.49508126422593 
! Gamma         !               0                0                
! Port Impedance50               0                

2.54             0.999979502219806 -4.51314371023987 
! Gamma         !               0                0                
! Port Impedance50               0                

2.55             0.999979148556756 -4.53120971430031 
! Gamma         !               0                0                
! Port Impedance50               0                

2.56             0.99997879048911 -4.54927929168179 
! Gamma         !               0                0                
! Port Impedance50               0                

2.57             0.999978427983524 -4.56735245767448 
! Gamma         !               0                0                
! Port Impedance50               0                

2.58             0.999978061006568 -4.58542922758425 
! Gamma         !               0                0                
! Port Impedance50               0                

2.59             0.999977689524726 -4.60350961673273 
! Gamma         !               0                0                
! Port Impedance50               0                

2.6              0.999977313504399 -4.62159364045743 
! Gamma         !               0                0                
! Port Impedance50               0                

2.61             0.999976932911903 -4.63968131411175 
! Gamma         !               0                0                
! Port Impedance50               0                

2.62             0.999976547713472 -4.65777265306509 
! Gamma         !               0                0                
! Port Impedance50               0                

2.63             0.999976157875255 -4.67586767270298 
! Gamma         !               0                0                
! Port Impedance50               0                

2.64             0.999975763363324 -4.69396638842704 
! Gamma         !               0                0                
! Port Impedance50               0                

2.65             0.999975364143664 -4.71206881565516 
! Gamma         !               0                0                
! Port Impedance50               0                
