! Touchstone file exported from HFSS 2019.3.0
!        File:           E:/matching network/HFSS/Ding_project/single_dipole/dipole1.aedt
!        Generated:      9:12:06 AM  May 17, 2020
!        Design:         HFSSDesign1
!        Project:        dipole1
!        Setup:          Setup1
!        Solution:       Sweep
!
! Variables:
!        dipole_length = 62.5mm
!        gap = 0.625mm
!        spacing = 12.5mm
!        thick = 0.125mm
!        wavelength = 125mm
!
# GHZ S MA R 50.000000
! Modal data exported
! Port[1] = 1:1
0.24                           0.999980710919732 -1.72774421525219 
! Gamma         !               0                0                
! Port Impedance50               0                

0.25                           0.99998296402346 -1.80079284377629 
! Gamma         !               0                0                
! Port Impedance50               0                

0.26                           0.999984918147847 -1.87401654590149 
! Gamma         !               0                0                
! Port Impedance50               0                

0.27                           0.999986587962355 -1.94742287902155 
! Gamma         !               0                0                
! Port Impedance50               0                

0.28                           0.999987984915646 -2.0210193896038 
! Gamma         !               0                0                
! Port Impedance50               0                

0.29                           0.999989117557589 -2.09481363804521 
! Gamma         !               0                0                
! Port Impedance50               0                

0.3                            0.999989991826997 -2.16881321854843 
! Gamma         !               0                0                
! Port Impedance50               0                

0.31                           0.999990611305402 -2.24302577516697 
! Gamma         !               0                0                
! Port Impedance50               0                

0.32                           0.999990977438703 -2.3174590149121 
! Gamma         !               0                0                
! Port Impedance50               0                

0.33                           0.999991089729218 -2.3921207186131 
! Gamma         !               0                0                
! Port Impedance50               0                

0.34                           0.999990945901011 -2.46701875006653 
! Gamma         !               0                0                
! Port Impedance50               0                

0.35                           0.999990542041373 -2.54216106388869 
! Gamma         !               0                0                
! Port Impedance50               0                

0.36                           0.999989872721178 -2.61755571239219 
! Gamma         !               0                0                
! Port Impedance50               0                

0.37                           0.99998893109665 -2.69321085173515 
! Gamma         !               0                0                
! Port Impedance50               0                

0.38                           0.999987708994825 -2.76913474753603 
! Gamma         !               0                0                
! Port Impedance50               0                

0.39                           0.999986196984688 -2.84533578010405 
! Gamma         !               0                0                
! Port Impedance50               0                

0.4                            0.999984384435802 -2.9218224494023 
! Gamma         !               0                0                
! Port Impedance50               0                

0.41                           0.999982259565912 -2.99860337983499 
! Gamma         !               0                0                
! Port Impedance50               0                

0.42                           0.999979809478893 -3.0756873249309 
! Gamma         !               0                0                
! Port Impedance50               0                

0.43                           0.999977020194162 -3.15308317197956 
! Gamma         !               0                0                
! Port Impedance50               0                

0.44                           0.999973876668535 -3.23079994666536 
! Gamma         !               0                0                
! Port Impedance50               0                

0.45                           0.999970362811364 -3.30884681773567 
! Gamma         !               0                0                
! Port Impedance50               0                

0.46                           0.999966461493662 -3.38723310173203 
! Gamma         !               0                0                
! Port Impedance50               0                

0.47                           0.999962154551818 -3.46596826780826 
! Gamma         !               0                0                
! Port Impedance50               0                

0.48                           0.999957422786403 -3.54506194265516 
! Gamma         !               0                0                
! Port Impedance50               0                

0.49                           0.999952245956502 -3.62452391554839 
! Gamma         !               0                0                
! Port Impedance50               0                

0.5                            0.999946602769921 -3.70436414353387 
! Gamma         !               0                0                
! Port Impedance50               0                

0.51                           0.99994047086957 -3.78459275676293 
! Gamma         !               0                0                
! Port Impedance50               0                

0.52                           0.999933826816261 -3.86522006398867 
! Gamma         !               0                0                
! Port Impedance50               0                

0.53                           0.999926646068116 -3.94625655823332 
! Gamma         !               0                0                
! Port Impedance50               0                

0.54                           0.999918902956758 -4.02771292263659 
! Gamma         !               0                0                
! Port Impedance50               0                

0.55                           0.99991057066039 -4.10960003649374 
! Gamma         !               0                0                
! Port Impedance50               0                

0.56                           0.999901621173859 -4.19192898149241 
! Gamma         !               0                0                
! Port Impedance50               0                

0.57                           0.999892025275776 -4.27471104815696 
! Gamma         !               0                0                
! Port Impedance50               0                

0.58                           0.999881752492736 -4.35795774250894 
! Gamma         !               0                0                
! Port Impedance50               0                

0.59                           0.999870771060637 -4.44168079295275 
! Gamma         !               0                0                
! Port Impedance50               0                

0.6                            0.999859047883118 -4.52589215739538 
! Gamma         !               0                0                
! Port Impedance50               0                

0.61                           0.999846548487091 -4.61060403060967 
! Gamma         !               0                0                
! Port Impedance50               0                

0.62                           0.999833236975323 -4.6958288518506 
! Gamma         !               0                0                
! Port Impedance50               0                

0.63                           0.999819075976025 -4.78157931273469 
! Gamma         !               0                0                
! Port Impedance50               0                

0.64                           0.999804026589382 -4.86786836539285 
! Gamma         !               0                0                
! Port Impedance50               0                

0.65                           0.999788048330939 -4.95470923090757 
! Gamma         !               0                0                
! Port Impedance50               0                

0.66                           0.999771099071747 -5.0421154080457 
! Gamma         !               0                0                
! Port Impedance50               0                

0.67                           0.999753134975167 -5.13010068229879 
! Gamma         !               0                0                
! Port Impedance50               0                

0.68                           0.999734110430217 -5.21867913524322 
! Gamma         !               0                0                
! Port Impedance50               0                

0.69                           0.999713977981302 -5.3078651542333 
! Gamma         !               0                0                
! Port Impedance50               0                

0.7                            0.999692688254222 -5.39767344244083 
! Gamma         !               0                0                
! Port Impedance50               0                

0.71                           0.999670189878252 -5.48811902925541 
! Gamma         !               0                0                
! Port Impedance50               0                

0.72                           0.999646429404159 -5.57921728106052 
! Gamma         !               0                0                
! Port Impedance50               0                

0.73                           0.999621351217944 -5.67098391240101 
! Gamma         !               0                0                
! Port Impedance50               0                

0.74                           0.999594897450118 -5.76343499755846 
! Gamma         !               0                0                
! Port Impedance50               0                

0.75                           0.999567007880286 -5.85658698255178 
! Gamma         !               0                0                
! Port Impedance50               0                

0.76                           0.999537619836825 -5.95045669758096 
! Gamma         !               0                0                
! Port Impedance50               0                

0.77                           0.999506668091381 -6.04506136993327 
! Gamma         !               0                0                
! Port Impedance50               0                

0.78                           0.999474084747944 -6.14041863737158 
! Gamma         !               0                0                
! Port Impedance50               0                

0.79                           0.999439799126196 -6.23654656202588 
! Gamma         !               0                0                
! Port Impedance50               0                

0.8                            0.999403737638853 -6.33346364481005 
! Gamma         !               0                0                
! Port Impedance50               0                

0.81                           0.999365823662652 -6.43118884038671 
! Gamma         !               0                0                
! Port Impedance50               0                

0.82                           0.99932597740266 -6.52974157270464 
! Gamma         !               0                0                
! Port Impedance50               0                

0.83                           0.99928411574953 -6.62914175113392 
! Gamma         !               0                0                
! Port Impedance50               0                

0.84                           0.999240152129312 -6.72940978722582 
! Gamma         !               0                0                
! Port Impedance50               0                

0.85                           0.999193996345412 -6.83056661212514 
! Gamma         !               0                0                
! Port Impedance50               0                

0.86                           0.99914555441224 -6.93263369466465 
! Gamma         !               0                0                
! Port Impedance50               0                

0.87                           0.999094728380099 -7.03563306017259 
! Gamma         !               0                0                
! Port Impedance50               0                

0.88                           0.999041416150794 -7.13958731002562 
! Gamma         !               0                0                
! Port Impedance50               0                

0.89                           0.998985511283427 -7.24451964198147 
! Gamma         !               0                0                
! Port Impedance50               0                

0.9                            0.998926902789821 -7.35045387132717 
! Gamma         !               0                0                
! Port Impedance50               0                

0.91                           0.998865474918954 -7.45741445288061 
! Gamma         !               0                0                
! Port Impedance50               0                

0.92                           0.998801106929761 -7.56542650388515 
! Gamma         !               0                0                
! Port Impedance50               0                

0.93                           0.998733672851606 -7.67451582783886 
! Gamma         !               0                0                
! Port Impedance50               0                

0.94                           0.998663041231705 -7.78470893930249 
! Gamma         !               0                0                
! Port Impedance50               0                

0.95                           0.998589074868687 -7.89603308973216 
! Gamma         !               0                0                
! Port Impedance50               0                

0.96                           0.998511630531489 -8.0085162943854 
! Gamma         !               0                0                
! Port Impedance50               0                

0.97                           0.99843055866266 -8.12218736035157 
! Gamma         !               0                0                
! Port Impedance50               0                

0.98                           0.998345703065139 -8.23707591576053 
! Gamma         !               0                0                
! Port Impedance50               0                

0.99                           0.998256900571477 -8.35321244022601 
! Gamma         !               0                0                
! Port Impedance50               0                

1                              0.998163980694421 -8.47062829658325 
! Gamma         !               0                0                
! Port Impedance50               0                

1.01                           0.998066765257685 -8.58935576398385 
! Gamma         !               0                0                
! Port Impedance50               0                

1.02                           0.99796506800568 -8.70942807241339 
! Gamma         !               0                0                
! Port Impedance50               0                

1.03                           0.997858694190847 -8.83087943870179 
! Gamma         !               0                0                
! Port Impedance50               0                

1.04                           0.997747440137204 -8.95374510409928 
! Gamma         !               0                0                
! Port Impedance50               0                

1.05                           0.997631092778541 -9.07806137349528 
! Gamma         !               0                0                
! Port Impedance50               0                

1.06                           0.997509429169672 -9.20386565636132 
! Gamma         !               0                0                
! Port Impedance50               0                

1.07                           0.997382215968965 -9.33119650950352 
! Gamma         !               0                0                
! Port Impedance50               0                

1.08                           0.997249208890296 -9.46009368171481 
! Gamma         !               0                0                
! Port Impedance50               0                

1.09                           0.997110152122419 -9.5905981604218 
! Gamma         !               0                0                
! Port Impedance50               0                

1.1                            0.996964777713594 -9.72275222042631 
! Gamma         !               0                0                
! Port Impedance50               0                

1.11                           0.996812804919175 -9.85659947484704 
! Gamma         !               0                0                
! Port Impedance50               0                

1.12                           0.996653939509672 -9.99218492837221 
! Gamma         !               0                0                
! Port Impedance50               0                

1.13                           0.996487873036647 -10.1295550329404 
! Gamma         !               0                0                
! Port Impedance50               0                

1.14                           0.996314282053577 -10.2687577459728 
! Gamma         !               0                0                
! Port Impedance50               0                

1.15                           0.996132827288631 -10.4098425912863 
! Gamma         !               0                0                
! Port Impedance50               0                

1.16                           0.99594315276606 -10.5528607228249 
! Gamma         !               0                0                
! Port Impedance50               0                

1.17                           0.995744884872674 -10.6978649913526 
! Gamma         !               0                0                
! Port Impedance50               0                

1.18                           0.995537631365599 -10.8449100142607 
! Gamma         !               0                0                
! Port Impedance50               0                

1.19                           0.995320980317208 -10.9940522486475 
! Gamma         !               0                0                
! Port Impedance50               0                

1.2                            0.995094498992844 -11.1453500678399 
! Gamma         !               0                0                
! Port Impedance50               0                

1.21                           0.994857732656591 -11.2988638415338 
! Gamma         !               0                0                
! Port Impedance50               0                

1.22                           0.994610203299972 -11.4546560197378 
! Gamma         !               0                0                
! Port Impedance50               0                

1.23                           0.994351408288098 -11.6127912207182 
! Gamma         !               0                0                
! Port Impedance50               0                

1.24                           0.994080818917339 -11.7733363231488 
! Gamma         !               0                0                
! Port Impedance50               0                

1.25                           0.993797878878119 -11.9363605626838 
! Gamma         !               0                0                
! Port Impedance50               0                

1.26                           0.993502002615967 -12.1019356331779 
! Gamma         !               0                0                
! Port Impedance50               0                

1.27                           0.993192573583388 -12.2701357927949 
! Gamma         !               0                0                
! Port Impedance50               0                

1.28                           0.992868942374533 -12.4410379752518 
! Gamma         !               0                0                
! Port Impedance50               0                

1.29                           0.992530424734037 -12.6147219064609 
! Gamma         !               0                0                
! Port Impedance50               0                

1.3                            0.992176299430666 -12.7912702268437 
! Gamma         !               0                0                
! Port Impedance50               0                

1.31                           0.991805805985706 -12.9707686196024 
! Gamma         !               0                0                
! Port Impedance50               0                

1.32                           0.991418142245176 -13.1533059452469 
! Gamma         !               0                0                
! Port Impedance50               0                

1.33                           0.991012461784123 -13.3389743826893 
! Gamma         !               0                0                
! Port Impedance50               0                

1.34                           0.990587871130241 -13.5278695772294 
! Gamma         !               0                0                
! Port Impedance50               0                

1.35                           0.990143426793085 -13.7200907957672 
! Gamma         !               0                0                
! Port Impedance50               0                

1.36                           0.98967813208399 -13.9157410895905 
! Gamma         !               0                0                
! Port Impedance50               0                

1.37                           0.989190933710622 -14.1149274650987 
! Gamma         !               0                0                
! Port Impedance50               0                

1.38                           0.988680718128748 -14.3177610628312 
! Gamma         !               0                0                
! Port Impedance50               0                

1.39                           0.988146307632419 -14.5243573451841 
! Gamma         !               0                0                
! Port Impedance50               0                

1.4                            0.987586456162189 -14.7348362932013 
! Gamma         !               0                0                
! Port Impedance50               0                

1.41                           0.986999844809357 -14.949322612837 
! Gamma         !               0                0                
! Port Impedance50               0                

1.42                           0.986385076992371 -15.1679459510898 
! Gamma         !               0                0                
! Port Impedance50               0                

1.43                           0.985740673279632 -15.3908411224083 
! Gamma         !               0                0                
! Port Impedance50               0                

1.44                           0.985065065830779 -15.6181483457691 
! Gamma         !               0                0                
! Port Impedance50               0                

1.45                           0.984356592426282 -15.8500134928174 
! Gamma         !               0                0                
! Port Impedance50               0                

1.46                           0.983613490052711 -16.0865883474534 
! Gamma         !               0                0                
! Port Impedance50               0                

1.47                           0.982833888008379 -16.3280308772236 
! Gamma         !               0                0                
! Port Impedance50               0                

1.48                           0.982015800491235 -16.5745055168539 
! Gamma         !               0                0                
! Port Impedance50               0                

1.49                           0.981157118627793 -16.8261834642228 
! Gamma         !               0                0                
! Port Impedance50               0                

1.5                            0.980255601898605 -17.0832429890257 
! Gamma         !               0                0                
! Port Impedance50               0                

1.51                           0.979308868912273 -17.3458697543196 
! Gamma         !               0                0                
! Port Impedance50               0                

1.52                           0.978314387476237 -17.6142571510594 
! Gamma         !               0                0                
! Port Impedance50               0                

1.53                           0.977269463908573 -17.8886066456393 
! Gamma         !               0                0                
! Port Impedance50               0                

1.54                           0.976171231530797 -18.1691281403298 
! Gamma         !               0                0                
! Port Impedance50               0                

1.55                           0.975016638277204 -18.4560403463544 
! Gamma         !               0                0                
! Port Impedance50               0                

1.56                           0.973802433351554 -18.7495711691633 
! Gamma         !               0                0                
! Port Impedance50               0                

1.57                           0.972525152856988 -19.0499581052456 
! Gamma         !               0                0                
! Port Impedance50               0                

1.58                           0.971181104319986 -19.3574486495466 
! Gamma         !               0                0                
! Port Impedance50               0                

1.59                           0.969766350023907 -19.6723007122399 
! Gamma         !               0                0                
! Port Impedance50               0                

1.6                            0.968276689062334 -19.9947830432133 
! Gamma         !               0                0                
! Port Impedance50               0                

1.61                           0.966707638017118 -20.3251756621629 
! Gamma         !               0                0                
! Port Impedance50               0                

1.62                           0.965054410160741 -20.6637702916381 
! Gamma         !               0                0                
! Port Impedance50               0                

1.63                           0.963311893077639 -21.0108707897161 
! Gamma         !               0                0                
! Port Impedance50               0                

1.64                           0.961474624594455 -21.3667935782013 
! Gamma         !               0                0                
! Port Impedance50               0                

1.65                           0.959536766905209 -21.7318680613109 
! Gamma         !               0                0                
! Port Impedance50               0                

1.66                           0.957492078774247 -22.1064370286974 
! Gamma         !               0                0                
! Port Impedance50               0                

1.67                           0.95533388569791 -22.4908570353532 
! Gamma         !               0                0                
! Port Impedance50               0                

1.68                           0.953055047905651 -22.885498749385 
! Gamma         !               0                0                
! Port Impedance50               0                

1.69                           0.950647926083278 -23.2907472568133 
! Gamma         !               0                0                
! Port Impedance50               0                

1.7                            0.948104344705778 -23.7070023103876 
! Gamma         !               0                0                
! Port Impedance50               0                

1.71                           0.945415552875628 -24.1346785068468 
! Gamma         !               0                0                
! Port Impedance50               0                

1.72                           0.942572182575543 -24.5742053740463 
! Gamma         !               0                0                
! Port Impedance50               0                

1.73                           0.939564204263424 -25.0260273458167 
! Gamma         !               0                0                
! Port Impedance50               0                

1.74                           0.936380879763386 -25.4906035982395 
! Gamma         !               0                0                
! Port Impedance50               0                

1.75                           0.933010712441643 -25.9684077161065 
! Gamma         !               0                0                
! Port Impedance50               0                

1.76                           0.92944139470205 -26.4599271525416 
! Gamma         !               0                0                
! Port Impedance50               0                

1.77                           0.925659752895373 -26.9656624379642 
! Gamma         !               0                0                
! Port Impedance50               0                
