! Touchstone file from project dipole1
! Exported from HFSS 15.0.0
! Variables:
!  dipole_length = 62.5mm
!  gap = 0.625mm
!  spacing = 12.5mm
!  thick = 1.25mm
!  wavelength = 125mm
# GHZ S MA R 50.000000
! Modal data exported
! Port[1] = 1:1
1                0.993013469544846 -20.9039184775233 
! Gamma  !      0                0                
! Port Impedance  50               0                

1.01             0.992625725043059 -21.1880051767256 
! Gamma  !      0                0                
! Port Impedance  50               0                

1.02             0.992216816342686 -21.4751128387301 
! Gamma  !      0                0                
! Port Impedance  50               0                

1.03             0.991785668168322 -21.7653123053616 
! Gamma  !      0                0                
! Port Impedance  50               0                

1.04             0.991331161705632 -22.0586714092718 
! Gamma  !      0                0                
! Port Impedance  50               0                

1.05             0.990852130785578 -22.3552665842897 
! Gamma  !      0                0                
! Port Impedance  50               0                

1.06             0.990347368748774 -22.65515963817  
! Gamma  !      0                0                
! Port Impedance  50               0                

1.07             0.989815614285847 -22.9584348037169 
! Gamma  !      0                0                
! Port Impedance  50               0                

1.08             0.989255564256254 -23.2651625084387 
! Gamma  !      0                0                
! Port Impedance  50               0                

1.09             0.988665866025064 -23.5754182413453 
! Gamma  !      0                0                
! Port Impedance  50               0                

1.1              0.988045117391683 -23.8892790875597 
! Gamma  !      0                0                
! Port Impedance  50               0                

1.11             0.987391867037599 -24.2068225885048 
! Gamma  !      0                0                
! Port Impedance  50               0                

1.12             0.986704613181214 -24.5281278747497 
! Gamma  !      0                0                
! Port Impedance  50               0                

1.13             0.985981804173191 -24.8532729448309 
! Gamma  !      0                0                
! Port Impedance  50               0                

1.14             0.985221835654793 -25.1823399786892 
! Gamma  !      0                0                
! Port Impedance  50               0                

1.15             0.984423052318358 -25.5154083729606 
! Gamma  !      0                0                
! Port Impedance  50               0                

1.16             0.983583741917966 -25.8525658489002 
! Gamma  !      0                0                
! Port Impedance  50               0                

1.17             0.982702147038399 -26.19388825834  
! Gamma  !      0                0                
! Port Impedance  50               0                

1.18             0.981776443933181 -26.5394696654285 
! Gamma  !      0                0                
! Port Impedance  50               0                

1.19             0.980804760044243 -26.8893943914226 
! Gamma  !      0                0                
! Port Impedance  50               0                

1.2              0.979785163468814 -27.2437510776225 
! Gamma  !      0                0                
! Port Impedance  50               0                

1.21             0.978715663755315 -27.6026296002537 
! Gamma  !      0                0                
! Port Impedance  50               0                

1.22             0.977594209031736 -27.9661237041722 
! Gamma  !      0                0                
! Port Impedance  50               0                

1.23             0.976418685351467 -28.3343266814338 
! Gamma  !      0                0                
! Port Impedance  50               0                

1.24             0.975186913302684 -28.7073355550624 
! Gamma  !      0                0                
! Port Impedance  50               0                

1.25             0.973896645616856 -29.0852490597653 
! Gamma  !      0                0                
! Port Impedance  50               0                

1.26             0.972545564190114 -29.4681687136946 
! Gamma  !      0                0                
! Port Impedance  50               0                

1.27             0.971131276177926 -29.8561986100351 
! Gamma  !      0                0                
! Port Impedance  50               0                

1.28             0.969651310304503 -30.249446212381 
! Gamma  !      0                0                
! Port Impedance  50               0                

1.29             0.968103112016797 -30.648021078486 
! Gamma  !      0                0                
! Port Impedance  50               0                

1.3              0.9664840387622  -31.0520373007411 
! Gamma  !      0                0                
! Port Impedance  50               0                

1.31             0.964791352860392 -31.4616123412431 
! Gamma  !      0                0                
! Port Impedance  50               0                

1.32             0.963022220237272 -31.8768661381589 
! Gamma  !      0                0                
! Port Impedance  50               0                

1.33             0.961173692676204 -32.2979261850496 
! Gamma  !      0                0                
! Port Impedance  50               0                

1.34             0.959242719652283 -32.7249147192129 
! Gamma  !      0                0                
! Port Impedance  50               0                

1.35             0.957226113373418 -33.1579719038417 
! Gamma  !      0                0                
! Port Impedance  50               0                

1.36             0.955120947360911 -33.5969006457586 
! Gamma  !      0                0                
! Port Impedance  50               0                

1.37             0.952924132324082 -34.0415659483892 
! Gamma  !      0                0                
! Port Impedance  50               0                

1.38             0.950627771861175 -34.495682091327 
! Gamma  !      0                0                
! Port Impedance  50               0                

1.39             0.948234958644893 -34.9536968665997 
! Gamma  !      0                0                
! Port Impedance  50               0                

1.4              0.94573976971429 -35.417529008302 
! Gamma  !      0                0                
! Port Impedance  50               0                

1.41             0.943132481751693 -35.8916342201929 
! Gamma  !      0                0                
! Port Impedance  50               0                

1.42             0.940416778186397 -36.3700585101067 
! Gamma  !      0                0                
! Port Impedance  50               0                

1.43             0.937580888667865 -36.8583518249996 
! Gamma  !      0                0                
! Port Impedance  50               0                

1.44             0.934625446256975 -37.3527580336472 
! Gamma  !      0                0                
! Port Impedance  50               0                

1.45             0.931540745623492 -37.8567475802119 
! Gamma  !      0                0                
! Port Impedance  50               0                

1.46             0.928330072452872 -38.364749795594 
! Gamma  !      0                0                
! Port Impedance  50               0                

1.47             0.924979427068233 -38.8826929152863 
! Gamma  !      0                0                
! Port Impedance  50               0                

1.48             0.92148586129498 -39.408857468388 
! Gamma  !      0                0                
! Port Impedance  50               0                

1.49             0.917843339800074 -39.9434172676562 
! Gamma  !      0                0                
! Port Impedance  50               0                

1.5              0.914045452110733 -40.4865922541276 
! Gamma  !      0                0                
! Port Impedance  50               0                

1.51             0.91008553687568 -41.0385615152071 
! Gamma  !      0                0                
! Port Impedance  50               0                

1.52             0.905956574296799 -41.5995238366395 
! Gamma  !      0                0                
! Port Impedance  50               0                

1.53             0.901651206966979 -42.1696705052284 
! Gamma  !      0                0                
! Port Impedance  50               0                

1.54             0.897161733466448 -42.7491929987197 
! Gamma  !      0                0                
! Port Impedance  50               0                

1.55             0.892480063394111 -43.3382859546728 
! Gamma  !      0                0                
! Port Impedance  50               0                

1.56             0.88759780518932 -43.9371067506566 
! Gamma  !      0                0                
! Port Impedance  50               0                

1.57             0.882506112114211 -44.545847346068 
! Gamma  !      0                0                
! Port Impedance  50               0                

1.58             0.877195808978769 -45.1646627392843 
! Gamma  !      0                0                
! Port Impedance  50               0                

1.59             0.871657330812639 -45.7937017804636 
! Gamma  !      0                0                
! Port Impedance  50               0                

1.6              0.865880741568158 -46.4330950165992 
! Gamma  !      0                0                
! Port Impedance  50               0                

1.61             0.859855718197406 -47.0829628367306 
! Gamma  !      0                0                
! Port Impedance  50               0                

1.62             0.85357160468836 -47.7433896457633 
! Gamma  !      0                0                
! Port Impedance  50               0                

1.63             0.847017383968957 -48.4144424464666 
! Gamma  !      0                0                
! Port Impedance  50               0                

1.64             0.840181718942007 -49.0961540319586 
! Gamma  !      0                0                
! Port Impedance  50               0                

1.65             0.833052975861653 -49.7885215782479 
! Gamma  !      0                0                
! Port Impedance  50               0                

1.66             0.825619259707335 -50.4914993491358 
! Gamma  !      0                0                
! Port Impedance  50               0                

1.67             0.81786844949845 -51.2049950957142 
! Gamma  !      0                0                
! Port Impedance  50               0                

1.68             0.809788255697651 -51.9288601264549 
! Gamma  !      0                0                
! Port Impedance  50               0                

1.69             0.801366283277041 -52.6628799600408 
! Gamma  !      0                0                
! Port Impedance  50               0                

1.7              0.792590081363887 -53.4067736962399 
! Gamma  !      0                0                
! Port Impedance  50               0                

1.71             0.783447246849017 -54.1601755535977 
! Gamma  !      0                0                
! Port Impedance  50               0                

1.72             0.773925509210734 -54.9226272778196 
! Gamma  !      0                0                
! Port Impedance  50               0                

1.73             0.764012831759941 -55.6935682339675 
! Gamma  !      0                0                
! Port Impedance  50               0                

1.74             0.753697538583492 -56.472319097666 
! Gamma  !      0                0                
! Port Impedance  50               0                

1.75             0.742968444972121 -57.2580692040237 
! Gamma  !      0                0                
! Port Impedance  50               0                

1.76             0.731815006530288 -58.0498591409591 
! Gamma  !      0                0                
! Port Impedance  50               0                

1.77             0.720227483616381 -58.8465628641248 
! Gamma  !      0                0                
! Port Impedance  50               0                

1.78             0.708197122494101 -59.6468669763537 
! Gamma  !      0                0                
! Port Impedance  50               0                

1.79             0.695716329764037 -60.4492544231331 
! Gamma  !      0                0                
! Port Impedance  50               0                

1.8              0.682778939959364 -61.2519574985833 
! Gamma  !      0                0                
! Port Impedance  50               0                

1.81             0.669380326319755 -62.0529730328164 
! Gamma  !      0                0                
! Port Impedance  50               0                

1.82             0.655517830506626 -62.849949985723 
! Gamma  !      0                0                
! Port Impedance  50               0                

1.83             0.641190690715789 -63.6402885632254 
! Gamma  !      0                0                
! Port Impedance  50               0                

1.84             0.626400673895706 -64.4209377906601 
! Gamma  !      0                0                
! Port Impedance  50               0                

1.85             0.611152074048709 -65.1884638983158 
! Gamma  !      0                0                
! Port Impedance  50               0                

1.86             0.595452082111814 -65.9389526005162 
! Gamma  !      0                0                
! Port Impedance  50               0                

1.87             0.579311053441481 -66.6679516509937 
! Gamma  !      0                0                
! Port Impedance  50               0                

1.88             0.562742785309325 -67.3703988112558 
! Gamma  !      0                0                
! Port Impedance  50               0                

1.89             0.545764805710026 -68.0405354307982 
! Gamma  !      0                0                
! Port Impedance  50               0                

1.9              0.528398654329033 -68.671809700745 
! Gamma  !      0                0                
! Port Impedance  50               0                

1.91             0.510670191912562 -69.25675210244  
! Gamma  !      0                0                
! Port Impedance  50               0                

1.92             0.492609900410727 -69.7868397680428 
! Gamma  !      0                0                
! Port Impedance  50               0                

1.93             0.474253224142256 -70.2523220300963 
! Gamma  !      0                0                
! Port Impedance  50               0                

1.94             0.455640927868163 -70.6420237371063 
! Gamma  !      0                0                
! Port Impedance  50               0                

1.95             0.436819487032603 -70.9431177607876 
! Gamma  !      0                0                
! Port Impedance  50               0                

1.96             0.417841689881057 -71.1407769652614 
! Gamma  !      0                0                
! Port Impedance  50               0                

1.97             0.398767033476061 -71.2179489800771 
! Gamma  !      0                0                
! Port Impedance  50               0                

1.98             0.37966266049641 -71.1548512114651 
! Gamma  !      0                0                
! Port Impedance  50               0                

1.99             0.36060418680422 -70.9285836880192 
! Gamma  !      0                0                
! Port Impedance  50               0                

2                0.341676993174496 -70.512572913814 
! Gamma  !      0                0                
! Port Impedance  50               0                

2.01             0.322977624846199 -69.8761192524596 
! Gamma  !      0                0                
! Port Impedance  50               0                

2.02             0.304615784214858 -68.9838624419816 
! Gamma  !      0                0                
! Port Impedance  50               0                

2.03             0.286716596948703 -67.7954914397711 
! Gamma  !      0                0                
! Port Impedance  50               0                

2.04             0.269423289311658 -66.2658073748475 
! Gamma  !      0                0                
! Port Impedance  50               0                

2.05             0.252900061677824 -64.345532285623 
! Gamma  !      0                0                
! Port Impedance  50               0                

2.06             0.237334673591971 -61.9834275474641 
! Gamma  !      0                0                
! Port Impedance  50               0                

2.07             0.222940009286464 -59.1304014122153 
! Gamma  !      0                0                
! Port Impedance  50               0                

2.08             0.209952660462615 -55.7466784863396 
! Gamma  !      0                0                
! Port Impedance  50               0                

2.09             0.198627019142117 -51.8121869706605 
! Gamma  !      0                0                
! Port Impedance  50               0                

2.1              0.189221589535626 -47.339909959013 
! Gamma  !      0                0                
! Port Impedance  50               0                

2.11             0.181976154647941 -42.3891505797986 
! Gamma  !      0                0                
! Port Impedance  50               0                

2.12             0.177081016205413 -37.0731343551551 
! Gamma  !      0                0                
! Port Impedance  50               0                

2.13             0.174644074203654 -31.5544787254437 
! Gamma  !      0                0                
! Port Impedance  50               0                

2.14             0.17466671964241 -26.0252191033171 
! Gamma  !      0                0                
! Port Impedance  50               0                

2.15             0.177038117089982 -20.6761378122034 
! Gamma  !      0                0                
! Port Impedance  50               0                

2.16             0.18155149779608 -15.6665826931509 
! Gamma  !      0                0                
! Port Impedance  50               0                

2.17             0.187936127174647 -11.1057684505418 
! Gamma  !      0                0                
! Port Impedance  50               0                

2.18             0.195893574098557 -7.04942701056901 
! Gamma  !      0                0                
! Port Impedance  50               0                

2.19             0.205128276402235 -3.50817227557225 
! Gamma  !      0                0                
! Port Impedance  50               0                

2.2              0.215367853135263 -0.460928557360321 
! Gamma  !      0                0                
! Port Impedance  50               0                

2.21             0.226373300932804 2.13194234314261 
! Gamma  !      0                0                
! Port Impedance  50               0                

2.22             0.237941762779818 4.31845252603155 
! Gamma  !      0                0                
! Port Impedance  50               0                

2.23             0.249904849376045 6.14821600599543 
! Gamma  !      0                0                
! Port Impedance  50               0                

2.24             0.262124814422703 7.66851035878336 
! Gamma  !      0                0                
! Port Impedance  50               0                

2.25             0.274490029330825 8.92232601067009 
! Gamma  !      0                0                
! Port Impedance  50               0                

2.26             0.286910622073326 9.9476578408678  
! Gamma  !      0                0                
! Port Impedance  50               0                

2.27             0.299314592589964 10.7775014282868 
! Gamma  !      0                0                
! Port Impedance  50               0                

2.28             0.31164446298996 11.4402092783464 
! Gamma  !      0                0                
! Port Impedance  50               0                

2.29             0.323854563421947 11.9599948183508 
! Gamma  !      0                0                
! Port Impedance  50               0                

2.3              0.335908789780027 12.3574734832087 
! Gamma  !      0                0                
! Port Impedance  50               0                

2.31             0.347778819516665 12.6501777164297 
! Gamma  !      0                0                
! Port Impedance  50               0                

2.32             0.359442646681795 12.8530237704364 
! Gamma  !      0                0                
! Port Impedance  50               0                

2.33             0.370883424124543 12.9787170809176 
! Gamma  !      0                0                
! Port Impedance  50               0                

2.34             0.382088520947019 13.0380999224636 
! Gamma  !      0                0                
! Port Impedance  50               0                

2.35             0.393048803863678 13.0404436533741 
! Gamma  !      0                0                
! Port Impedance  50               0                

2.36             0.403757834946488 12.9937038440363 
! Gamma  !      0                0                
! Port Impedance  50               0                

2.37             0.414211741339752 12.9047091393686 
! Gamma  !      0                0                
! Port Impedance  50               0                

2.38             0.424408438585956 12.7793505781186 
! Gamma  !      0                0                
! Port Impedance  50               0                

2.39             0.434347480114155 12.6227164150389 
! Gamma  !      0                0                
! Port Impedance  50               0                

2.4              0.44402974510523 12.4392135169662 
! Gamma  !      0                0                
! Port Impedance  50               0                

2.41             0.453457190023294 12.2326680389196 
! Gamma  !      0                0                
! Port Impedance  50               0                

2.42             0.462632764902838 12.0064052443908 
! Gamma  !      0                0                
! Port Impedance  50               0                

2.43             0.47156004563342 11.7633282211765 
! Gamma  !      0                0                
! Port Impedance  50               0                

2.44             0.480243310800032 11.505967891367  
! Gamma  !      0                0                
! Port Impedance  50               0                

2.45             0.488687327236393 11.2365374535684 
! Gamma  !      0                0                
! Port Impedance  50               0                

2.46             0.496897275162925 10.9569730580775 
! Gamma  !      0                0                
! Port Impedance  50               0                

2.47             0.504878659829761 10.6689703583179 
! Gamma  !      0                0                
! Port Impedance  50               0                

2.48             0.512637257331451 10.3740135047531 
! Gamma  !      0                0                
! Port Impedance  50               0                

2.49             0.520179032639494 10.0734021323216 
! Gamma  !      0                0                
! Port Impedance  50               0                

2.5              0.527510106768043 9.76827249521532 
! Gamma  !      0                0                
! Port Impedance  50               0                

2.51             0.534636679888559 9.45961773458606 
! Gamma  !      0                0                
! Port Impedance  50               0                

2.52             0.5415650219224  9.14830285241746 
! Gamma  !      0                0                
! Port Impedance  50               0                

2.53             0.548301402175795 8.8350804701696  
! Gamma  !      0                0                
! Port Impedance  50               0                

2.54             0.554852072296114 8.520602473322   
! Gamma  !      0                0                
! Port Impedance  50               0                

2.55             0.561223225476216 8.20543109880073 
! Gamma  !      0                0                
! Port Impedance  50               0                

2.56             0.567420968171114 7.89004927815886 
! Gamma  !      0                0                
! Port Impedance  50               0                

2.57             0.573451291753584 7.57486875180261 
! Gamma  !      0                0                
! Port Impedance  50               0                

2.58             0.57932004802524 7.26023846163758 
! Gamma  !      0                0                
! Port Impedance  50               0                

2.59             0.585032926956167 6.94645103190123 
! Gamma  !      0                0                
! Port Impedance  50               0                

2.6              0.590595433395986 6.63374998391357 
! Gamma  !      0                0                
! Port Impedance  50               0                

2.61             0.59601287038507 6.32233520663515 
! Gamma  !      0                0                
! Port Impedance  50               0                

2.62             0.601290347627291 6.01236807895542 
! Gamma  !      0                0                
! Port Impedance  50               0                

2.63             0.606432724227577 5.70397761468702 
! Gamma  !      0                0                
! Port Impedance  50               0                

2.64             0.611444607380471 5.39726466323813 
! Gamma  !      0                0                
! Port Impedance  50               0                

2.65             0.616330423587126 5.09230497577864 
! Gamma  !      0                0                
! Port Impedance  50               0                

2.66             0.621094303506427 4.78915537978413 
! Gamma  !      0                0                
! Port Impedance  50               0                

2.67             0.625740153283443 4.48785586942411 
! Gamma  !      0                0                
! Port Impedance  50               0                

2.68             0.630271637496331 4.18843353396639 
! Gamma  !      0                0                
! Port Impedance  50               0                

2.69             0.634692183419349 3.89090568321156 
! Gamma  !      0                0                
! Port Impedance  50               0                

2.7              0.639004993038406 3.59528237563233 
! Gamma  !      0                0                
! Port Impedance  50               0                

2.71             0.643213053314626 3.30156910973806 
! Gamma  !      0                0                
! Port Impedance  50               0                

2.72             0.647319146435749 3.00976893028515 
! Gamma  !      0                0                
! Port Impedance  50               0                

2.73             0.651325868783945 2.71988396517911 
! Gamma  !      0                0                
! Port Impedance  50               0                

2.74             0.65523564448898 2.43191783389735 
! Gamma  !      0                0                
! Port Impedance  50               0                

2.75             0.659050743619653 2.14587592635717 
! Gamma  !      0                0                
! Port Impedance  50               0                

2.76             0.662773301857926 1.86176729005296 
! Gamma  !      0                0                
! Port Impedance  50               0                

2.77             0.666405338560122 1.57960484350958 
! Gamma  !      0                0                
! Port Impedance  50               0                

2.78             0.669948776896276 1.29940607783713 
! Gamma  !      0                0                
! Port Impedance  50               0                

2.79             0.673405462934943 1.02119333690753 
! Gamma  !      0                0                
! Port Impedance  50               0                

2.8              0.676777175871241 0.744993653959338 
! Gamma  !      0                0                
! Port Impedance  50               0                

2.81             0.680065689108019 0.470838921549958 
! Gamma  !      0                0                
! Port Impedance  50               0                

2.82             0.683272701635204 0.19876530703935 
! Gamma  !      0                0                
! Port Impedance  50               0                
