! Touchstone file from project single_SIW_antenna_39GHz_50mil
! Exported from HFSS 2017.0.0
! Variables:
!  $D1 = 1.82692307692308mm
!  $Disk_shift = 0mm
!  $G1 = 0.243589743589744mm
!  $G2 = 0.608974358974359mm
!  $S0 = 50mil
!  $S1 = 0.243589743589744mm
!  $S2 = 4.87179487179487mm
!  $SL = 1.46153846153846mm
!  $SW = 0.584615384615385mm
!  $VL = 1.82692307692308mm
!  $VW = 0.618717948717949mm
!  $W = 3.02051282051282mm
!  $W1 = 3.02051282051282mm
!  $extension_from_slot = 4.87179487179487mm
!  $length = 21.9121153846154mm
!  $offset = 0.5mm
!  $patch_step = 3.34935897435897mm
!  $slot_center_to_short = 5.02403846153846mm
!  $slot_side = 0.730769230769231mm
!  $slot_step = 3.34935897435897mm
!  $substrate_edge = 2.23290598290598mm
!  $width = 6.04102564102564mm
!  brick_dist = 0.608974358974359mm
!Data is not renormalized
# GHZ S MA
! Modal data exported
! Port[1] = 1:1
30               0.827191490323038 68.9025883301155 
! Gamma         !               2.70302520023527 278.842232334738 
! Port Impedance440.430180822173 4.32490590559473 

30.01            0.827107661172609 66.4756086953761 
! Gamma         !               2.69098617620637 280.224124846616 
! Port Impedance438.40510956266  4.2652185444605  

30.02            0.826963465952398 64.0372647481877 
! Gamma         !               2.67912585596429 281.599695243386 
! Port Impedance436.409689554447 4.2069435953089  

30.03            0.826761592396267 61.5878550914757 
! Gamma         !               2.66743996978117 282.9690356615   
! Port Impedance434.443213956867 4.15003447514493 

30.04            0.826504816604704 59.1276871068305 
! Gamma         !               2.65592438898362 284.332236051267 
! Port Impedance432.504999239124 4.09444656104283 

30.05            0.826195993141578 56.657076819075  
! Gamma         !               2.64457512002398 285.689384248608 
! Port Impedance430.594384202179 4.04013709021048 

30.06            0.825838044743977 54.1763487440027 
! Gamma         !               2.6333882988531  287.040566043822 
! Port Impedance428.710729050281 3.98706506602166 

30.07            0.825433951702724 51.6858357181745 
! Gamma         !               2.62236018557686 288.3858652475   
! Port Impedance426.853414509244 3.93519116960945 

30.08            0.824986740973794 49.1858787095717 
! Gamma         !               2.61148715937948 289.725363753743 
! Port Impedance425.021840988666 3.88447767664373 

30.09            0.824499475083064 46.6768266079827 
! Gamma         !               2.60076571369811 291.059141600806 
! Port Impedance423.215427785563 3.8348883789456  

30.1             0.823975240888434 44.159035993966  
! Gamma         !               2.59019245163428 292.387277029296 
! Port Impedance421.433612327005 3.78638851061693 

30.11            0.82341713826449 41.6328708853143 
! Gamma         !               2.57976408158827 293.709846538057 
! Port Impedance419.675849449515 3.73894467838743 

30.12            0.822828268775501 39.0987024600312 
! Gamma         !               2.5694774131041  295.02692493783  
! Port Impedance417.941610713153 3.69252479590418 

30.13            0.82221172440256 36.5569087548823 
! Gamma         !               2.55932935291288 296.338585402821 
! Port Impedance416.23038374832  3.64709802170773 

30.14            0.821570576390234 34.0078743387824 
! Gamma         !               2.54931690116374 297.644899520253 
! Port Impedance414.541671633455 3.60263470065879 

30.15            0.820907864277068 31.4519899603454 
! Gamma         !               2.53943714783168 298.945937338016 
! Port Impedance412.874992301921 3.55910630859511 

30.16            0.820226585172763 28.8896521691842 
! Gamma         !               2.52968726929279 300.241767410483 
! Port Impedance411.229877976471 3.51648540001553 

30.17            0.819529683342835 26.3212629106678 
! Gamma         !               2.52006452505757 301.532456842604 
! Port Impedance409.605874629788 3.47474555860093 

30.18            0.818820040159043 23.7472290941026 
! Gamma         !               2.51056625465388 302.818071332334 
! Port Impedance408.002541469697 3.43386135039637 

30.19            0.818100464470949 21.1679621345465 
! Gamma         !               2.5011898746515  304.098675211475 
! Port Impedance406.419450447729 3.39380827949082 

30.2             0.81737368345054 18.5838774686614 
! Gamma         !               2.49193287582064 305.37433148502  
! Port Impedance404.856185789784 3.3545627460414  

30.21            0.816642333958128 15.9953940453389 
! Gamma         !               2.48279282041755 306.645101869039 
! Port Impedance403.312343547745 3.31610200650071 

30.22            0.815908954473572 13.4029337920337 
! Gamma         !               2.47376733959034 307.911046827198 
! Port Impedance401.787531170932 3.27840413591437 

30.23            0.815175977632446 10.8069210580756 
! Gamma         !               2.46485413089889 309.172225605957 
! Port Impedance400.281367096377 3.24144799216598 

30.24            0.814445723402069 8.20778203643505 
! Gamma         !               2.45605095594303 310.428696268499 
! Port Impedance398.793480356946 3.2052131820537  

30.25            0.813720392927347 5.60594416573049 
! Gamma         !               2.4473556380932  311.680515727474 
! Port Impedance397.3235102064   3.1696800290914  

30.26            0.813002063071304 3.00183551451652 
! Gamma         !               2.43876606031881 312.927739776563 
! Port Impedance395.871105760539 3.13482954293402 

30.27            0.812292681669887 0.395884150078683 
! Gamma         !               2.43028016310891 314.170423120957 
! Port Impedance394.43592565361  3.10064339033294 

30.28            0.811594063515331 -2.21148250573112 
! Gamma         !               2.4218959424809  315.408619406774 
! Port Impedance393.017637709231 3.06710386753417 

30.29            0.810907887076992 -4.81983833097041 
! Gamma         !               2.41361144807279 316.642381249455 
! Port Impedance391.615918625101 3.03419387403675 

30.3             0.810235691963258 -7.42875916550843 
! Gamma         !               2.40542478131493 317.871760261199 
! Port Impedance390.230453670831 3.00189688763508 

30.31            0.809578877122801 -10.0378234773714 
! Gamma         !               2.39733409367724 319.096807077464 
! Port Impedance388.86093639824  2.97019694067279 

30.32            0.808938699778389 -12.6466130304084 
! Gamma         !               2.38933758498837 320.317571382575 
! Port Impedance387.507068363528 2.93907859744102 

30.33            0.808316275081392 -15.2547135500768 
! Gamma         !               2.38143350182344 321.534101934472 
! Port Impedance386.168558860747 2.90852693265797 

30.34            0.807712576470414 -17.8617153841402 
! Gamma         !               2.37362013595672 322.746446588649 
! Port Impedance384.845124666032 2.87852751097019 

30.35            0.80712843671291 -20.4672141550083 
! Gamma         !               2.36589582287665 323.954652321289 
! Port Impedance383.536489792085 2.84906636742028 

30.36            0.806564549604448 -23.0708114005308 
! Gamma         !               2.35825894035981 325.158765251656 
! Port Impedance382.242385252427 2.82012998882871 

30.37            0.806021472296337 -25.6721152000851 
! Gamma         !               2.35070790710148 326.358830663752 
! Port Impedance380.962548834965 2.79170529604068 

30.38            0.805499628218809 -28.2707407829269 
! Gamma         !               2.34324118139983 327.554893027279 
! Port Impedance379.696724884442 2.76377962699209 

30.39            0.80499931056373 -30.8663111158784 
! Gamma         !               2.33585725989156 328.74699601793  
! Port Impedance378.444664093357 2.73634072055113 

30.4             0.804520686288093 -33.4584574676106 
! Gamma         !               2.32855467633637 329.935182537035 
! Port Impedance377.206123300977 2.70937670109498 

30.41            0.80406380059711 -36.0468199469645 
! Gamma         !               2.32133200044823 331.119494730586 
! Port Impedance375.980865300057 2.68287606378305 

30.42            0.803628581863859 -38.6310480129459 
! Gamma         !               2.31418783677135 332.299974007667 
! Port Impedance374.768658650951 2.65682766049108 

30.43            0.803214846940872 -41.2108009543165 
! Gamma         !               2.3071208235986  333.476661058315 
! Port Impedance373.569277502741 2.63122068637152 

30.44            0.80282230681801 -43.7857483368815 
! Gamma         !               2.30012963193085 334.649595870816 
! Port Impedance372.382501421115 2.60604466700891 

30.45            0.802450572580317 -46.3555704169135 
! Gamma         !               2.29321296447514 335.818817748486 
! Port Impedance371.208115222667 2.5812894461395  

30.46            0.802099161619288 -48.9199585193648 
! Gamma         !               2.28636955468008 336.984365325928 
! Port Impedance370.045908815346 2.556945173907   

30.47            0.80176750405118 -51.4786153798408 
! Gamma         !               2.27959816580688 338.146276584805 
! Port Impedance368.895677044791 2.53300229562755 

30.48            0.801454949296517 -54.031255449558 
! Gamma         !               2.27289759003443 339.304588869132 
! Port Impedance367.757219546291 2.50945154103853 

30.49            0.801160772775856 -56.5776051627969 
! Gamma         !               2.26626664759695 340.459338900116 
! Port Impedance366.630340602133 2.48628391400746 

30.5             0.800884182678124 -59.1174031666358 
! Gamma         !               2.2597041859529  341.610562790554 
! Port Impedance365.514849004101 2.46349068267822 

30.51            0.800624326759363 -61.6504005129922 
! Gamma         !               2.25320907898366 342.758296058803 
! Port Impedance364.41055792092  2.44106337003351 

30.52            0.800380299131568 -64.1763608132754 
! Gamma         !               2.24678022622097 343.902573642347 
! Port Impedance363.317284770417 2.41899374485317 

30.53            0.800151147003317 -66.6950603561488 
! Gamma         !               2.24041655210165 345.043429910962 
! Port Impedance362.234851096226 2.39727381304944 

30.54            0.799935877336216 -69.2062881891555 
! Gamma         !               2.23411700524866 346.180898679509 
! Port Impedance361.163082448827 2.37589580936114 

30.55            0.799733463383571 -71.7098461651352 
! Gamma         !               2.22788055777735 347.315013220347 
! Port Impedance360.101808270751 2.35485218938964 

30.56            0.799542851080331 -74.2055489545337 
! Gamma         !               2.22170620462584 348.445806275405 
! Port Impedance359.050861785773 2.33413562196058 

30.57            0.799362965255986 -76.693224024895 
! Gamma         !               2.2155929629086  349.573310067901 
! Port Impedance358.010079891943 2.31373898179599 

30.58            0.799192715644929 -79.172711588915 
! Gamma         !               2.20953987129215 350.697556313735 
! Port Impedance356.979303058278 2.29365534248236 

30.59            0.799031002671519 -81.6438645226114 
! Gamma         !               2.20354598939225 351.818576232565 
! Port Impedance355.958375224991 2.27387796972096 

30.6             0.79887672299    -84.1065482551878 
! Gamma         !               2.19761039719142 352.936400558567 
! Port Impedance354.947143707097 2.25440031484745 

30.61            0.798728774762135 -86.5606406323178 
! Gamma         !               2.19173219447618 354.051059550905 
! Port Impedance353.945459101273 2.23521600860833 

30.62            0.798586062658258 -89.0060317545722 
! Gamma         !               2.18591050029315 355.162583003909 
! Port Impedance352.953175195834 2.21631885518269 

30.63            0.798447502570081 -91.4426237927782 
! Gamma         !               2.18014445242329 356.271000256972 
! Port Impedance351.970148883712 2.1977028264381  

30.64            0.798312026026275 -93.8703307821143 
! Gamma         !               2.17443320687356 357.376340204188 
! Port Impedance350.99624007831  2.17936205641014 

30.65            0.798178584304277 -96.2890783967336 
! Gamma         !               2.16877593738533 358.478631303715 
! Port Impedance350.031311632134 2.16129083599556 

30.66            0.798046152234222 -98.6988037067275 
! Gamma         !               2.16317183495884 359.577901586902 
! Port Impedance349.075229258077 2.14348360784955 

30.67            0.797913731693135 -101.099454919164 
! Gamma         !               2.15762010739325 360.674178667156 
! Port Impedance348.127861453268 2.12593496147827 

30.68            0.797780354789602 -103.49099110496 
! Gamma         !               2.15211997884144 361.767489748589 
! Port Impedance347.189079425381 2.10863962851783 

30.69            0.797645086741152 -105.873381913255 
! Gamma         !               2.14667068937925 362.857861634427 
! Port Impedance346.258757021313 2.09159247819176 

30.7             0.797507028448328 -108.246607274898 
! Gamma         !               2.14127149458838 363.945320735202 
! Port Impedance345.336770658143 2.07478851293921 

30.71            0.797365318771078 -110.610657096643 
! Gamma         !               2.1359216651527  365.02989307673  
! Port Impedance344.42299925628  2.05822286420644 

30.72            0.797219136514596 -112.965530947498 
! Gamma         !               2.13062048646716 366.111604307878 
! Port Impedance343.517324174725 2.04189078839465 

30.73            0.797067702132996 -115.311237738692 
! Gamma         !               2.12536725825916 367.190479708144 
! Port Impedance342.619629148367 2.02578766295749 

30.74            0.7969102791604  -117.647795398549 
! Gamma         !               2.1201612942216  368.266544195019 
! Port Impedance341.729800227236 2.00990898264192 

30.75            0.796746175379963 -119.975230543578 
! Gamma         !               2.11500192165748 369.339822331189 
! Port Impedance340.847725717643 1.99425035586627 

30.76            0.796574743742228 -122.293578146909 
! Gamma         !               2.10988848113535 370.410338331532 
! Port Impedance339.973296125136 1.97880750122991 

30.77            0.79639538304484 -124.602881205192 
! Gamma         !               2.10482032615548 371.47811606995  
! Port Impedance339.106404099214 1.96357624414892 

30.78            0.796207538386235 -126.903190404972 
! Gamma         !               2.09979682282611 372.543179086029 
! Port Impedance338.246944379714 1.94855251361259 

30.79            0.796010701406295 -129.194563789458 
! Gamma         !               2.09481734954967 373.605550591527 
! Port Impedance337.39481374485  1.93373233905575 

30.8             0.795804410327239 -131.477066426545 
! Gamma         !               2.08988129671835 374.665253476709 
! Port Impedance336.549910960796 1.91911184734222 

30.81            0.795588249808207 -133.750770078855 
! Gamma         !               2.08498806641895 375.72231031652  
! Port Impedance335.7121367328   1.90468725985476 

30.82            0.795361850627013 -136.015752876512 
! Gamma         !               2.08013707214647 376.776743376607 
! Port Impedance334.881393657758 1.89045488968732 

30.83            0.795124889202536 -138.272098993255 
! Gamma         !               2.07532773852625 377.8285746192   
! Port Impedance334.057586178184 1.87641113893535 

30.84            0.794877086971033 -140.519898326467 
! Gamma         !               2.07055950104435 378.87782570884  
! Port Impedance333.240620537559 1.86255249608036 

30.85            0.794618209629504 -142.759246181608 
! Gamma         !               2.06583180578581 379.924518017983 
! Port Impedance332.430404736975 1.84887553346477 

30.86            0.794348066258892 -144.990242961479 
! Gamma         !               2.06114410918063 380.96867263245  
! Port Impedance331.626848493061 1.83537690485377 

30.87            0.794066508339579 -147.212993860701 
! Gamma         !               2.0564958777571  382.010310356768 
! Port Impedance330.829863197124 1.82205334308038 

30.88            0.793773428671255 -149.42760856572 
! Gamma         !               2.0518865879023  383.049451719369 
! Port Impedance330.039361875473 1.80890165777084 

30.89            0.793468760208729 -151.634200960616 
! Gamma         !               2.04731572562952 384.086116977671 
! Port Impedance329.255259150895 1.7959187331468  

30.9             0.793152474824823 -153.832888838946 
! Gamma         !               2.04278278635226 385.120326123044 
! Port Impedance328.477471205215 1.78310152590166 

30.91            0.792824582010931 -156.023793621771 
! Gamma         !               2.03828727466482 386.152098885651 
! Port Impedance327.705915742945 1.77044706314799 

30.92            0.792485127525304 -158.207040082056 
! Gamma         !               2.03382870412893 387.181454739184 
! Port Impedance326.940511955942 1.7579524404333  

30.93            0.792134191998543 -160.382756075502 
! Gamma         !               2.02940659706658 388.208412905485 
! Port Impedance326.181180489081 1.74561481982176 

30.94            0.791771889505233 -162.551072277913 
! Gamma         !               2.02502048435856 389.232992359068 
! Port Impedance325.427843406875 1.73343142803899 

30.95            0.791398366110039 -164.712121929119 
! Gamma         !               2.02066990524864 390.255211831523 
! Port Impedance324.680424161043 1.72139955467788 

30.96            0.791013798396056 -166.866040583499 
! Gamma         !               2.01635440715321 391.275089815843 
! Port Impedance323.938847558958 1.70951655046296 

30.97            0.790618391982568 -169.01296586705 
! Gamma         !               2.01207354547624 392.292644570625 
! Port Impedance323.20303973299  1.69777982557115 

30.98            0.790212380038856 -171.153037241022 
! Gamma         !               2.00782688342918 393.307894124198 
! Port Impedance322.472928110674 1.6861868480068  

30.99            0.789796021800094 -173.286395772039 
! Gamma         !               2.00361399185595 394.320856278651 
! Port Impedance321.748441385698 1.67473514202896 

31               0.78936960109087 -175.413183908643 
! Gamma         !               1.99943444906264 395.331548613764 
! Port Impedance321.029509489693 1.66342228662912 

31.01            0.788933424861286 -177.533545264201 
! Gamma         !               1.99528784065178 396.339988490867 
! Port Impedance320.316063564767 1.65224591405726 

31.02            0.788487821740134 -179.647624406054 
! Gamma         !               1.99117375936115 397.346193056596 
! Port Impedance319.608035936795 1.64120370839475 

31.03            0.788033140609116 178.244433349158 
! Gamma         !               1.98709180490689 398.350179246581 
! Port Impedance318.905360089418 1.63029340417221 

31.04            0.787569749201627 176.142482134143 
! Gamma         !               1.98304158383081 399.351963789046 
! Port Impedance318.207970638742 1.61951278503073 

31.05            0.787098032729166 174.046375723662 
! Gamma         !               1.97902270935173 400.351563208327 
! Port Impedance317.5158033087   1.60885968242499 

31.06            0.786618392538006 171.955967721429 
! Gamma         !               1.9750348012208  401.348993828326 
! Port Impedance316.828794907075 1.59833197436655 

31.07            0.786131244798391 169.871111741333 
! Gamma         !               1.9710774855806  402.344271775878 
! Port Impedance316.146883302147 1.58792758420622 

31.08            0.78563701922809 167.791661583097 
! Gamma         !               1.96715039482793 403.337412984051 
! Port Impedance315.470007399955 1.57764447945373 

31.09            0.785136157851871 165.717471402531 
! Gamma         !               1.96325316748022 404.328433195373 
! Port Impedance314.798107122152 1.56748067063368 

31.1             0.784629113798035 163.648395876464 
! Gamma         !               1.95938544804533 405.317347965    
! Port Impedance314.131123384433 1.55743421017637 

31.11            0.784116350132945 161.584290362542 
! Gamma         !               1.95554688689481 406.304172663796 
! Port Impedance313.468998075518 1.54750319134227 

31.12            0.783598338734125 159.525011053966 
! Gamma         !               1.95173714014038 407.288922481373 
! Port Impedance312.811674036681 1.53768574717901 

31.13            0.783075559202308 157.470415129323 
! Gamma         !               1.94795586951351 408.27161242905  
! Port Impedance312.159095041794 1.52798004950977 

31.14            0.782548497812527 155.42036089764  
! Gamma         !               1.94420274224816 409.252257342753 
! Port Impedance311.511205777892 1.51838430795185 

31.15            0.782017646504197 153.374707938743 
! Gamma         !               1.94047743096648 410.230871885863 
! Port Impedance310.867951826213 1.50889676896464 

31.16            0.781483501909867 151.333317239081 
! Gamma         !               1.93677961356735 411.207470551993 
! Port Impedance310.229279643735 1.49951571492568 

31.17            0.780946564422223 149.29605132308  
! Gamma         !               1.93310897311774 412.182067667719 
! Port Impedance309.595136545162 1.49023946323409 

31.18            0.78040733729873 147.26277438016  
! Gamma         !               1.92946519774683 413.154677395246 
! Port Impedance308.965470685369 1.48106636544036 

31.19            0.779866325803183 145.233352387503 
! Gamma         !               1.9258479805427  414.125313735025 
! Port Impedance308.34023104228  1.47199480640151 

31.2             0.779324036383314 143.207653228649 
! Gamma         !               1.92225701945162 415.093990528316 
! Port Impedance307.719367400171 1.46302320346098 

31.21            0.778780975883527 141.185546808031 
! Gamma         !               1.91869201717987 416.060721459695 
! Port Impedance307.102830333384 1.4541500056522  

31.22            0.778237650791711 139.166905161498 
! Gamma         !               1.91515268109785 417.025520059518 
! Port Impedance306.490571190447 1.44537369292522 

31.23            0.777694566519057 137.151602562926 
! Gamma         !               1.91163872314667 417.988399706328 
! Port Impedance305.882542078571 1.43669277539555 

31.24            0.777152226711719 135.139515626939 
! Gamma         !               1.90814985974694 418.949373629219 
! Port Impedance305.278695848534 1.42810579261444 

31.25            0.77661113259313 133.130523407851 
! Gamma         !               1.90468581170976 419.90845491015  
! Port Impedance304.678986079925 1.41961131286004 

31.26            0.776071782335753 131.124507494817 
! Gamma         !               1.90124630414995 420.865656486215 
! Port Impedance304.083367066752 1.4112079324486  

31.27            0.775534670461038 129.121352103284 
! Gamma         !               1.89783106640124 421.82099115187  
! Port Impedance303.491793803385 1.40289427506512 

31.28            0.775000287266318 127.120944162747 
! Gamma         !               1.8944398319336  422.774471561107 
! Port Impedance302.904221970843 1.39466899111288 

31.29            0.774469118277433 125.123173400844 
! Gamma         !               1.89107233827248 423.726110229603 
! Port Impedance302.320607923406 1.3865307570811  

31.3             0.773941643725812 123.127932423814 
! Gamma         !               1.88772832691998 424.675919536805 
! Port Impedance301.740908675542 1.37847827493028 

31.31            0.773418338048815 121.135116793315 
! Gamma         !               1.88440754327788 425.623911727997 
! Port Impedance301.165081889145 1.37051027149459 

31.32            0.772899669412153 119.144625099635 
! Gamma         !               1.8811097365725  426.570098916308 
! Port Impedance300.593085861074 1.36262549790074 

31.33            0.772386099253199 117.156359031259 
! Gamma         !               1.8778346597813  427.514493084694 
! Port Impedance300.024879510979 1.35482272900293 

31.34            0.771878081844096 115.170223440808 
! Gamma         !               1.87458206956119 428.457106087879 
! Port Impedance299.460422369414 1.34710076283313 

31.35            0.771376063873558 113.186126407337 
! Gamma         !               1.87135172617853 429.397949654254 
! Port Impedance298.899674566231 1.33945842006658 

31.36            0.770880484046354 111.203979294949 
! Gamma         !               1.86814339344071 430.337035387747 
! Port Impedance298.342596819228 1.33189454350156 

31.37            0.770391772699474 109.223696807737 
! Gamma         !               1.86495683862938 431.274374769653 
! Port Impedance297.789150423078 1.32440799755346 

31.38            0.769910351434059 107.245197040973 
! Gamma         !               1.8617918324351  432.209979160433 
! Port Impedance297.239297238489 1.31699766776234 

31.39            0.76943663276223 105.268401528563 
! Gamma         !               1.85864814889358 433.143859801476 
! Port Impedance296.692999681636 1.30966246031376 

31.4             0.768971019767994 103.293235286694 
! Gamma         !               1.85552556532333 434.076027816828 
! Port Impedance296.15022071381  1.30240130157243 

31.41            0.768513905781492 101.319626853628 
! Gamma         !               1.85242386226474 435.006494214895 
! Port Impedance295.61092383132  1.2952131376282  

31.42            0.768065674065898 99.3475083256296 
! Gamma         !               1.84934282342051 435.935269890106 
! Port Impedance295.075073055609 1.28809693385419 

31.43            0.767626697516348 97.3768153889356 
! Gamma         !               1.84628223559742 436.86236562455  
! Port Impedance294.542632923603 1.28105167447646 

31.44            0.767197338370352 95.4074873477539 
! Gamma         !               1.84324188864945 437.787792089585 
! Port Impedance294.013568478265 1.27407636215514 

31.45            0.766777947929189 93.439467148208  
! Gamma         !               1.8402215754221  438.711559847412 
! Port Impedance293.487845259371 1.26717001757633 

31.46            0.766368866289873 91.4727013982008 
! Gamma         !               1.83722109169803 439.633679352624 
! Port Impedance292.96542929448  1.2603316790549  

31.47            0.765970422087315 89.5071403831248 
! Gamma         !               1.83424023614378 440.554160953725 
! Port Impedance292.446287090111 1.25356040214732 

31.48            0.765582932246395 87.5427380773711 
! Gamma         !               1.83127881025781 441.473014894628 
! Port Impedance291.930385623108 1.24685525927476 

31.49            0.765206701743712 85.5794521515985 
! Gamma         !               1.82833661831955 442.390251316111 
! Port Impedance291.417692332202 1.24021533935573 

31.5             0.764842023378825 83.6172439756878 
! Gamma         !               1.82541346733965 443.305880257269 
! Port Impedance290.908175109749 1.23363974744821 

31.51            0.764489177554889 81.6560786173595 
! Gamma         !               1.8225091670113  444.219911656915 
! Port Impedance290.401802293655 1.22712760440097 

31.52            0.764148432068603 79.6959248363896 
! Gamma         !               1.81962352966253 445.132355354981 
! Port Impedance289.89854265947  1.22067804651365 

31.53            0.76382004190949 77.7367550744009 
! Gamma         !               1.81675637020966 446.043221093872 
! Port Impedance289.398365412656 1.21429022520561 

31.54            0.763504249068543 75.7785454401793 
! Gamma         !               1.81390750611165 446.952518519813 
! Port Impedance288.901240181019 1.20796330669303 

31.55            0.763201282356325 73.8212756904896 
! Gamma         !               1.8110767573255  447.860257184162 
! Port Impedance288.407137007307 1.20169647167416 

31.56            0.762911357230677 71.8649292063753 
! Gamma         !               1.80826394626253 448.766446544705 
! Port Impedance287.916026341961 1.19548891502251 

31.57            0.762634675634199 69.9094929649017 
! Gamma         !               1.80546889774568 449.671095966925 
! Port Impedance287.427879036021 1.18933984548766 

31.58            0.762371425841733 67.9549575063588 
! Gamma         !               1.80269143896762 450.574214725256 
! Port Impedance286.942666334188 1.18324848540349 

31.59            0.762121782318092 66.0013168968941 
! Gamma         !               1.79993139944981 451.475812004304 
! Port Impedance286.460359868023 1.1772140704037  

31.6             0.761885905586304 64.0485686866026 
! Gamma         !               1.7971886110024  452.375896900057 
! Port Impedance285.980931649294 1.17123584914432 

31.61            0.761663942106705 62.0967138630646 
! Gamma         !               1.79446290768497 453.27447842107  
! Port Impedance285.504354063465 1.165313083033   

31.62            0.761456024167162 60.1457568003817 
! Gamma         !               1.79175412576807 454.171565489629 
! Port Impedance285.030599863312 1.15944504596504 

31.63            0.761262269784807 58.1957052037132 
! Gamma         !               1.78906210369561 455.067166942897 
! Port Impedance284.559642162684 1.15363102406574 

31.64            0.761082782619603 56.2465700493787 
! Gamma         !               1.78638668204796 455.961291534041 
! Port Impedance284.091454430377 1.14787031543911 

31.65            0.760917651900118 54.2983655205722 
! Gamma         !               1.78372770350588 456.853947933337 
! Port Impedance283.626010484152 1.14216222992262 

31.66            0.760766952361845 52.3511089387447 
! Gamma         !               1.78108501281513 457.74514472926  
! Port Impedance283.163284484861 1.13650608884785 

31.67            0.760630744198453 50.4048206907457 
! Gamma         !               1.77845845675186 458.634890429551 
! Port Impedance282.703250930702 1.13090122480696 

31.68            0.760509073026286 48.459524151791  
! Gamma         !               1.77584788408866 459.523193462274 