! Touchstone file from project SIW_system_50mil
! Exported from HFSS 2017.0.0
! Variables:
!  $D1 = 1.82692307692308mm
!  $Disk_shift = 0mm
!  $G1 = 0.243589743589744mm
!  $G2 = 0.608974358974359mm
!  $S0 = 50mil
!  $S1 = 0.243589743589744mm
!  $S2 = 4.87179487179487mm
!  $SL = 1.46153846153846mm
!  $SW = 0.584615384615385mm
!  $VL = 1.82692307692308mm
!  $VW = 0.618717948717949mm
!  $W = 3.02051282051282mm
!  $W1 = 3.02051282051282mm
!  $extension_from_slot = 4.87179487179487mm
!  $length = 21.9121153846154mm
!  $new_width = 9.68025641025641mm
!  $offset = 0.5mm
!  $patch_step = 3.34935897435897mm
!  $slot_center_to_short = 5.02403846153846mm
!  $slot_side = 0.730769230769231mm
!  $slot_step = 3.34935897435897mm
!  $substrate_edge = 2.23290598290598mm
!  $width = 6.04102564102564mm
!  Hi = 0
!  L1 = 3.3mm
!  L_PD = 9.03490571543203mm
!  L_port1 = 3.55618776671408mm
!  L_port_2_3 = 1.56mm
!  R_PY1 = 0.147083926031294mm
!  W_port1 = 4.26mm
!  W_shoulder_length = 1.81858974358974mm
!  brick_dis = 0.177809388335704mm
!  brick_dist = 0.608974358974359mm
!  delay_d = 1.07mm
!  delay_t = 0.4mm
!  dpy1 = 2.25mm
!  gy_L = 27mm
!  gy_W = 3.02051282051282mm
!  gy_d = 1.11025641025641mm
!  gy_sub_width = 12.0820512820513mm
!  gy_t = 0.4mm
!  leak_gap = 5.5mm
!  sub_width_PD = 9.68025641025641mm
!  w_extra_wall_PD = 0mm
!Data is not renormalized
# GHZ S MA
! Modal data exported
! Port[1] = 1:1
30               0.509374956905512 141.489512630117 
! Gamma         !               0.848669153679378 784.54020915379  
! Port Impedance111.022829418449 0.130025324740195 

30.01            0.509448273743553 140.644353340265 
! Gamma         !               0.848616322401973 785.032485663531 
! Port Impedance110.990195452483 0.129902693618159 

30.02            0.509379603387696 139.784579551502 
! Gamma         !               0.848563848254218 785.52461747301  
! Port Impedance110.957622828527 0.129780360931784 

30.03            0.509158369919575 138.909644856891 
! Gamma         !               0.84851173021754 786.016604853981 
! Port Impedance110.92511137502  0.12965832562262 

30.04            0.508772963816247 138.018970023913 
! Gamma         !               0.848459967277207 786.508448077441 
! Port Impedance110.892660921051 0.12953658663711 

30.05            0.508210605264057 137.111941988514 
! Gamma         !               0.848408558422307 787.000147413627 
! Port Impedance110.860271296353 0.129415142926559 

30.06            0.507457185714806 136.187913365828 
! Gamma         !               0.848357502645734 787.491703132025 
! Port Impedance110.827942331305 0.129293993447111 

30.07            0.506497083785423 135.246202740726 
! Gamma         !               0.848306798944167 787.983115501367 
! Port Impedance110.795673856923 0.129173137159718 

30.08            0.505312950858305 134.286096106863 
! Gamma         !               0.848256446318055 788.474384789641 
! Port Impedance110.763465704858 0.129052573030113 

30.09            0.503885460860074 133.30684997076  
! Gamma         !               0.848206443771597 788.965511264086 
! Port Impedance110.731317707398 0.128932300028785 

30.1             0.502193017667067 132.307696845604 
! Gamma         !               0.848156790312728 789.456495191199 
! Port Impedance110.69922969746  0.12881231713095 

30.11            0.500211412399329 131.287854154186 
! Gamma         !               0.848107484953101 789.947336836738 
! Port Impedance110.667201508586 0.128692623316526 

30.12            0.49791342152929 130.246537979966 
! Gamma         !               0.848058526708078 790.438036465724 
! Port Impedance110.635232974947 0.128573217570104 

30.13            0.495268335286127 129.182983706574 
! Gamma         !               0.848009914596712 790.928594342444 
! Port Impedance110.603323931331 0.128454098880925 

30.14            0.492241404378823 128.09647645379  
! Gamma         !               0.847961647641751 791.419010730452 
! Port Impedance110.571474213147 0.12833526624285 

30.15            0.488793191791044 126.986395479729 
! Gamma         !               0.847913724869635 791.909285892575 
! Port Impedance110.539683656419 0.128216718654339 

30.16            0.484878815704245 125.852278568207 
! Gamma         !               0.847866145310542 792.399420090912 
! Port Impedance110.507952097783 0.128098455118418 

30.17            0.480447070189643 124.693915153772 
! Gamma         !               0.847818907998479 792.889413586841 
! Port Impedance110.476279374486 0.127980474642662 

30.18            0.475439413444513 123.511481013624 
! Gamma         !               0.847772011971574 793.379266641016 
! Port Impedance110.444665324381 0.127862776239161 

30.19            0.469788821279675 122.305733491875 
! Gamma         !               0.847725456272903 793.868979513377 
! Port Impedance110.413109785924 0.127745358924501 

30.2             0.463418520234138 121.07829554487  
! Gamma         !               0.847679239952866 794.358552463147 
! Port Impedance110.381612598173 0.127628221719736 

30.21            0.456240646988132 119.832071194413 
! Gamma         !               0.847633362070079 794.847985748856 
! Port Impedance110.350173600786 0.127511363650363 

30.22            0.448154940688543 118.571857098601 
! Gamma         !               0.847587821627149 795.337279628346 
! Port Impedance110.318792634014 0.127394783746299 

30.23            0.439047683365338 117.305249446241 
! Gamma         !               0.84754261763374 795.826434358605 
! Port Impedance110.287469538701 0.127278481041853 

30.24            0.428791297398167 116.043999468044 
! Gamma         !               0.847497749248672 796.315450196023 
! Port Impedance110.256204156281 0.127162454575705 

30.25            0.41724535175839 114.806055762619 
! Gamma         !               0.847453215524913 796.804327396331 
! Port Impedance110.224996328777 0.12704670339088 

30.26            0.404260331127203 113.618663965196 
! Gamma         !               0.847409015514933 797.293066214517 
! Port Impedance110.193845898793 0.126931226534724 

30.27            0.389686573644087 112.523095611238 
! Gamma         !               0.847365148283362 797.781666904871 
! Port Impedance110.162752709517 0.126816023058878 

30.28            0.37339260039081 111.581865685704 
! Gamma         !               0.847321612900962 798.270129720988 
! Port Impedance110.131716604715 0.126701092019261 

30.29            0.355300137514285 110.889643336999 
! Gamma         !               0.84727840844274 798.758454915769 
! Port Impedance110.100737428729 0.126586432476036 

30.3             0.335448117045747 110.589235106585 
! Gamma         !               0.847235533987393 799.24664274143  
! Port Impedance110.069815026475 0.126472043493595 

30.31            0.314105168256868 110.893106241627 
! Gamma         !               0.847192988617115 799.734693449497 
! Port Impedance110.03894924344  0.126357924140533 

30.32            0.291957324764243 112.105889598408 
! Gamma         !               0.847150771417515 800.222607290815 
! Port Impedance110.008139925678 0.126244073489623 

30.33            0.270391624298021 114.626138960108 
! Gamma         !               0.847108881477573 800.710384515545 
! Port Impedance109.977386919808 0.126130490617795 

30.34            0.251829787742613 118.862958140575 
! Gamma         !               0.847067317889612 801.198025373171 
! Port Impedance109.946690073015 0.126017174606115 

30.35            0.239837852617051 124.953095137194 
! Gamma         !               0.847026079749278 801.685530112497 
! Port Impedance109.916049233041 0.125904124539758 

30.36            0.238370850344548 132.288270250312 
! Gamma         !               0.846985166155519 802.172898981656 
! Port Impedance109.885464248186 0.125791339507995 

30.37            0.249794348252367 139.385901797082 
! Gamma         !               0.846944576210572 802.660132228109 
! Port Impedance109.854934967307 0.125678818604173 

30.38            0.273101852645642 144.689486832819 
! Gamma         !               0.846904309019942 803.147230098646 
! Port Impedance109.824461239812 0.125566560925729 

30.39            0.304347864534876 147.50751745978  
! Gamma         !               0.846864363692389 803.634192839392 
! Port Impedance109.794042915659 0.125454565574353 

30.4             0.338638619771333 148.036067336992 
! Gamma         !               0.846824739339914 804.121020695806 
! Port Impedance109.763679845353 0.125342831658029 

30.41            0.371741828887572 146.856222180686 
! Gamma         !               0.84678543507774 804.607713912687 
! Port Impedance109.733371879931 0.12523135828032 

30.42            0.400739686361688 144.563804040258 
! Gamma         !               0.846746450024299 805.094272734172 
! Port Impedance109.703118871012 0.125120144551815 

30.43            0.424042293254253 141.63166099002  
! Gamma         !               0.84670778330122 805.580697403743 
! Port Impedance109.672920670713 0.125009189599432 

30.44            0.441101920868386 138.393695369934 
! Gamma         !               0.846669434033307 806.066988164226 
! Port Impedance109.642777131704 0.124898492540628 

30.45            0.452046879376258 135.070404061382 
! Gamma         !               0.846631401348533 806.553145257795 
! Port Impedance109.612688107189 0.124788052500126 

30.46            0.45736120011739 131.801956523218 
! Gamma         !               0.846593684378018 807.039168925975 
! Port Impedance109.582653450906 0.12467786860679 

30.47            0.457661047313072 128.677336965231 
! Gamma         !               0.846556282256017 807.525059409641 
! Port Impedance109.552673017122 0.124567939993375 

30.48            0.453567733015297 125.756960967377 
! Gamma         !               0.84651919411991 808.010816949026 
! Port Impedance109.522746660629 0.124458265796477 

30.49            0.445654984492046 123.089416514103 
! Gamma         !               0.84648241911018 808.496441783716 
! Port Impedance109.492874236747 0.124348845156501 

30.5             0.434446033233673 120.723880478574 
! Gamma         !               0.846445956370404 808.98193415266  
! Port Impedance109.463055601318 0.124239677217639 

30.51            0.420442579099714 118.719637996786 
! Gamma         !               0.846409805047238 809.467294294166 
! Port Impedance109.433290610704 0.124130761127852 

30.52            0.404175147133441 117.153478681133 
! Gamma         !               0.846373964290399 809.952522445907 
! Port Impedance109.403579121784 0.124022096038844 

30.53            0.386269304790293 116.124595005952 
! Gamma         !               0.84633843325266 810.437618844924 
! Port Impedance109.373920991953 0.123913681106044 

30.54            0.367522893706878 115.754687083836 
! Gamma         !               0.846303211089825 810.922583727623 
! Port Impedance109.344316079121 0.123805515488586 

30.55            0.348983750362531 116.177969726635 
! Gamma         !               0.846268296960722 811.407417329784 
! Port Impedance109.314764241705 0.123697598349289 

30.56            0.3320022446157  117.512325597871 
! Gamma         !               0.846233690027188 811.892119886558 
! Port Impedance109.285265338635 0.123589928854636 

30.57            0.318207756754823 119.803119526156 
! Gamma         !               0.846199389454057 812.376691632472 
! Port Impedance109.255819229343 0.123482506174758 

30.58            0.309337769596093 122.945416593017 
! Gamma         !               0.84616539440914 812.861132801431 
! Port Impedance109.226425773767 0.123375329483406 

30.59            0.306879678327447 126.625929019923 
! Gamma         !               0.846131704063218 813.345443626719 
! Port Impedance109.197084832347 0.123268397957943 

30.6             0.311617537973205 130.354663361949 
! Gamma         !               0.846098317590028 813.829624341003 
! Port Impedance109.167796266021 0.123161710779313 

30.61            0.323333356068546 133.610029493202 
! Gamma         !               0.846065234166244 814.313675176334 
! Port Impedance109.138559936225 0.123055267132031 

30.62            0.340874569803115 136.010177438223 
! Gamma         !               0.846032452971471 814.797596364148 
! Port Impedance109.109375704889 0.122949066204159 

30.63            0.362531983806656 137.392816465474 
! Gamma         !               0.845999973188227 815.281388135271 
! Port Impedance109.080243434435 0.122843107187289 

30.64            0.386478946840509 137.782956364243 
! Gamma         !               0.84596779400193 815.765050719919 
! Port Impedance109.051162987778 0.12273738927652 

30.65            0.411081165669617 137.312297987082 
! Gamma         !               0.845935914600888 816.248584347703 
! Port Impedance109.022134228317 0.122631911670447 

30.66            0.43503955957973 136.148643215221 
! Gamma         !               0.845904334176282 816.731989247626 
! Port Impedance108.993157019941 0.122526673571134 

30.67            0.457412954098927 134.453967919078 
! Gamma         !               0.845873051922156 817.215265648091 
! Port Impedance108.96423122702  0.122421674184102 

30.68            0.477577036465534 132.366159527302 
! Gamma         !               0.845842067035404 817.698413776898 
! Port Impedance108.935356714407 0.122316912718307 

30.69            0.49515873169242 129.994577520037 
! Gamma         !               0.845811378715754 818.18143386125  
! Port Impedance108.906533347433 0.122212388386122 

30.7             0.509967895246758 127.422099175078 
! Gamma         !               0.84578098616576 818.664326127755 
! Port Impedance108.877760991907 0.12210810040332 

30.71            0.521936818560266 124.709517356234 
! Gamma         !               0.845750888590785 819.147090802423 
! Port Impedance108.849039514114 0.122004047989055 

30.72            0.531071430299782 121.900310962691 
! Gamma         !               0.845721085198991 819.629728110676 
! Port Impedance108.820368780809 0.121900230365845 

30.73            0.537414523521708 119.02498411811  
! Gamma         !               0.84569157520133 820.112238277342 
! Port Impedance108.791748659221 0.121796646759553 

30.74            0.541019662984489 116.104745398973 
! Gamma         !               0.845662357811567 820.594621526667 
! Port Impedance108.763179017046 0.121693296399371 

30.75            0.541933876262743 113.154557182713 
! Gamma         !               0.845633432246569 821.076878082288 
! Port Impedance108.734659722447 0.121590178517799 

30.76            0.540187314727187 110.185690487147 
! Gamma         !               0.845604797724091 821.559008167316 
! Port Impedance108.706190644051 0.121487292350631 

30.77            0.535788468031736 107.207957307812 
! Gamma         !               0.845576453467667 822.041012004212 
! Port Impedance108.677771650949 0.121384637136937 

30.78            0.528724037229052 104.231802888444 
! Gamma         !               0.845548398701468 822.522889814894 
! Port Impedance108.649402612691 0.121282212119045 

30.79            0.518963112827663 101.27044551982  
! Gamma         !               0.845520632652887 823.004641820696 
! Port Impedance108.621083399284 0.121180016542522 

30.8             0.506465812135633 98.3422616265058 
! Gamma         !               0.845493154552023 823.486268242375 
! Port Impedance108.592813881195 0.12107804965616 

30.81            0.491196974502602 95.4736338149393 
! Gamma         !               0.845465963631664 823.967769300115 
! Port Impedance108.564593929342 0.120976310711959 

30.82            0.473145865477147 92.7025098630313 
! Gamma         !               0.845439059127274 824.44914521353  
! Port Impedance108.536423415096 0.120874798965107 

30.83            0.452353067384575 90.0829551407534 
! Gamma         !               0.845412440276982 824.930396201662 
! Port Impedance108.50830221028  0.120773513673967 

30.84            0.428945797977563 87.6909954625646 
! Gamma         !               0.845386106321567 825.411522482985 
! Port Impedance108.480230187163 0.120672454100057 

30.85            0.403182768992641 85.6319675851191 
! Gamma         !               0.84536005650445 825.89252427541  
! Port Impedance108.45220721846  0.120571619508036 

30.86            0.375509311715473 84.0492129449799 
! Gamma         !               0.84533429007168 826.373401796283 
! Port Impedance108.424233177337 0.120471009165575 

30.87            0.346622543529481 83.1327326696831 
! Gamma         !               0.845308806271924 826.854155262388 
! Port Impedance108.396307937384 0.120370622343895 

30.88            0.317543482154811 83.1231490157251 
! Gamma         !               0.845283604356452 827.334784889948 
! Port Impedance108.368431372655 0.120270458316648 

30.89            0.289683935646561 84.2988393102049 
! Gamma         !               0.84525868357913 827.815290894633 
! Port Impedance108.340603357629 0.120170516360997 

30.9             0.264870926985373 86.9212579174038 
! Gamma         !               0.845234043196404 828.295673491551 
! Port Impedance108.312823767223 0.120070795757057 

30.91            0.245240346286433 91.1057374696848 
! Gamma         !               0.845209682467295 828.77593289526  
! Port Impedance108.285092476789 0.119971295787986 

30.92            0.232865028500599 96.6261772596381 
! Gamma         !               0.845185600653379 829.256069319766 
! Port Impedance108.257409362112 0.119872015739968 

30.93            0.229084960333929 102.797312243797 
! Gamma         !               0.845161797018785 829.736082978522 
! Port Impedance108.229774299408 0.119772954902198 

30.94            0.233877792273698 108.658457910519 
! Gamma         !               0.845138270830175 830.215974084436 
! Port Impedance108.202187165322 0.119674112566868 

30.95            0.245829572919079 113.40341673342  
! Gamma         !               0.845115021356741 830.695742849869 
! Port Impedance108.174647836926 0.11957548802915 

30.96            0.262760011008689 116.662710932283 
! Gamma         !               0.845092047870187 831.175389486636 
! Port Impedance108.147156191714 0.11947708058718 

30.97            0.282447802964571 118.455695537071 
! Gamma         !               0.845069349644721 831.654914206011 
! Port Impedance108.119712107608 0.119378889542043 

30.98            0.303035040898555 118.997686777155 
! Gamma         !               0.845046925957048 832.134317218728 
! Port Impedance108.092315462949 0.119280914197759 

30.99            0.323117204360444 118.549140333492 
! Gamma         !               0.84502477608635 832.613598734979 
! Port Impedance108.064966136497 0.119183153861266 

31               0.341680957606716 117.344903336684 
! Gamma         !               0.845002899314284 833.092758964424 
! Port Impedance108.037664007431 0.119085607842408 

31.01            0.358004300440782 115.574580291083 
! Gamma         !               0.844981294924965 833.571798116184 
! Port Impedance108.010408955344 0.118988275453914 

31.02            0.371566493125052 113.385166532505 
! Gamma         !               0.84495996220496 834.050716398848 
! Port Impedance107.983200860246 0.118891156011391 

31.03            0.381980318824894 110.890728313796 
! Gamma         !               0.844938900443273 834.529514020474 
! Port Impedance107.956039602556 0.118794248833303 

31.04            0.388947109376095 108.183093955285 
! Gamma         !               0.844918108931338 835.008191188591 
! Port Impedance107.928925063106 0.118697553240958 

31.05            0.392232391173169 105.341793622275 
! Gamma         !               0.844897586963006 835.486748110197 
! Port Impedance107.901857123135 0.118601068558496 

31.06            0.391660447100883 102.443129303949 
! Gamma         !               0.844877333834537 835.96518499177  
! Port Impedance107.87483566429  0.118504794112869 

31.07            0.387127011265999 99.5687643086404 
! Gamma         !               0.844857348844585 836.443502039257 
! Port Impedance107.847860568623 0.118408729233834 

31.08            0.378629769305845 96.8142611152948 
! Gamma         !               0.844837631294194 836.921699458089 
! Port Impedance107.820931718588 0.11831287325393 

31.09            0.366315900265593 94.2977752985772 
! Gamma         !               0.844818180486782 837.399777453172 
! Port Impedance107.794048997043 0.118217225508473 

31.1             0.350544344149456 92.1685607550563 
! Gamma         !               0.844798995728134 837.877736228894 
! Port Impedance107.767212287243 0.118121785335533 

31.11            0.331957674147454 90.6136981352631 
! Gamma         !               0.844780076326394 838.355575989129 
! Port Impedance107.740421472844 0.118026552075926 

31.12            0.311553900177618 89.8587482423212 
! Gamma         !               0.84476142159205 838.833296937232 
! Port Impedance107.713676437896 0.117931525073197 

31.13            0.290740137106918 90.1527588627333 
! Gamma         !               0.84474303083794 839.310899276047 
! Port Impedance107.686977066846 0.117836703673609 

31.14            0.271332791961494 91.7205302262423 
! Gamma         !               0.844724903379275 839.788383207906 
! Port Impedance107.660323244533 0.117742087226124 

31.15            0.255439267979513 94.6635578022556 
! Gamma         !               0.844707038534191 840.265748934635 
! Port Impedance107.633714856185 0.117647675082395 

31.16            0.245137120289324 98.8212719260475 
! Gamma         !               0.844689435648374 840.742996657434 
! Port Impedance107.607151787425 0.11755346659675 

31.17            0.241942799307347 103.68584012455  
! Gamma         !               0.844672093961581 841.220126577383 
! Port Impedance107.580633924258 0.117459461126175 

31.18            0.24629540647914 108.511496890575 
! Gamma         !               0.844655012881371 841.697138894554 
! Port Impedance107.554161153081 0.117365658030308 

31.19            0.257440600527899 112.606378925941 
! Gamma         !               0.844638191707131 842.174033808806 
! Port Impedance107.52773336067  0.117272056671417 

31.2             0.2738254270436  115.572364270522 
! Gamma         !               0.84462162976746 842.650811519437 
! Port Impedance107.501350434188 0.117178656414395 

31.21            0.293676235973108 117.327886711955 
! Gamma         !               0.844605326393463 843.127472225246 
! Port Impedance107.475012261178 0.117085456626738 

31.22            0.315405302347005 117.988830786696 
! Gamma         !               0.844589280918519 843.604016124532 
! Port Impedance107.448718729563 0.116992456678541 

31.23            0.337766159394162 117.74476017887  
! Gamma         !               0.844573492678254 844.0804434151   
! Port Impedance107.422469727644 0.116899655942479 

31.24            0.359849296020391 116.785927822993 
! Gamma         !               0.844557961010523 844.556754294257 
! Port Impedance107.396265144098 0.116807053793792 

31.25            0.381016413787124 115.274016464646 
! Gamma         !               0.8445426852554  845.032948958818 
! Port Impedance107.370104867977 0.11671464961028 

31.26            0.400826665671323 113.336415965009 
! Gamma         !               0.844527664755168 845.509027605108 
! Port Impedance107.343988788707 0.116622442772283 

31.27            0.41897467954696 111.070003116594 
! Gamma         !               0.844512898854308 845.984990428961 
! Port Impedance107.317916796086 0.116530432662671 

31.28            0.435244376436959 108.547504613956 
! Gamma         !               0.844498386899493 846.460837625724 
! Port Impedance107.29188878028  0.116438618666831 

31.29            0.449477028238766 105.823682340661 
! Gamma         !               0.844484128239575 846.936569390256 
! Port Impedance107.265904631826 0.116347000172656 

31.3             0.461550727063581 102.940492940494 
! Gamma         !               0.844470122225577 847.412185916933 
! Port Impedance107.239964241626 0.116255576570527 

31.31            0.47136860333236 99.9311242231545 
! Gamma         !               0.844456368210685 847.887687399646 
! Port Impedance107.214067500948 0.116164347253307 

31.32            0.478853608285107 96.8230512421196 
! Gamma         !               0.844442865550237 848.363074031807 
! Port Impedance107.188214301425 0.116073311616327 

31.33            0.483948091398011 93.640296213607  
! Gamma         !               0.844429613601715 848.838346006345 
! Port Impedance107.16240453505  0.115982469057369 

31.34            0.486616666687378 90.405052163494  
! Gamma         !               0.844416611724735 849.313503515713 
! Port Impedance107.13663809418  0.11589181897666 

31.35            0.486850995538027 87.1387932352249 
! Gamma         !               0.844403859281039 849.788546751886 
! Port Impedance107.110914871529 0.115801360776857 

31.36            0.484675180908105 83.862964032299  
! Gamma         !               0.844391355634484 850.263475906365 
! Port Impedance107.085234760168 0.115711093863032 

31.37            0.480150544315527 80.5993213802681 
! Gamma         !               0.844379100151038 850.738291170176 
! Port Impedance107.059597653526 0.115621017642666 

31.38            0.473378710445988 77.3699938078774 
! Gamma         !               0.844367092198764 851.212992733875 
! Port Impedance107.034003445386 0.115531131525633 

31.39            0.464502194556001 74.1973235625999 
! Gamma         !               0.844355331147818 851.687580787545 
! Port Impedance107.008452029885 0.115441434924189 

31.4             0.453702072881435 71.1035586885138 
! Gamma         !               0.844343816370435 852.162055520803 
! Port Impedance106.98294330151  0.11535192725296 

31.41            0.442169034539622 68.2482425172162 
! Gamma         !               0.844332547240924 852.636417122797 
! Port Impedance106.957477155099 0.115262607928928 

31.42            0.430445376021304 65.5957992663703 
! Gamma         !               0.844321523135659 853.110665782209 
! Port Impedance106.932053485841 0.115173476371423 

31.43            0.41661156357748 62.867076413882  
! Gamma         !               0.844310743433063 853.584801687258 
! Port Impedance106.906672189269 0.115084532002114 

31.44            0.400439885669044 60.0894282017827 
! Gamma         !               0.844300207513608 854.058825025699 
! Port Impedance106.881333161263 0.114995774244989 

31.45            0.381731006682469 57.307105565103  
! Gamma         !               0.844289914759804 854.532735984827 
! Port Impedance106.856036298049 0.114907202526351 

31.46            0.360346793145011 54.5890953460885 
! Gamma         !               0.844279864556192 855.006534751478 
! Port Impedance106.830781496193 0.114818816274799 

31.47            0.33625634006459 52.0406087434637 
! Gamma         !               0.844270056289332 855.480221512027 
! Port Impedance106.805568652605 0.114730614921226 

31.48            0.309597722873792 49.8200836221232 
! Gamma         !               0.844260489347796 855.953796452397 
! Port Impedance106.780397664535 0.114642597898799 

31.49            0.280758610799235 48.1643877574297 
! Gamma         !               0.844251163122161 856.42725975805  
! Port Impedance106.755268429569 0.114554764642955 

31.5             0.250481477773129 47.4249945678572 
! Gamma         !               0.844242077005   856.900611614001 
! Port Impedance106.730180845634 0.114467114591383 

31.51            0.220004448231276 48.1127600652939 
! Gamma         !               0.844233230390871 857.373852204807 
! Port Impedance106.705134810991 0.11437964718402 

31.52            0.191248006514944 50.9217151621422 
! Gamma         !               0.844224622676313 857.846981714579 
! Port Impedance106.680130224235 0.114292361863032 

31.53            0.166998942408948 56.6099992158897 
! Gamma         !               0.844216253259834 858.320000326977 
! Port Impedance106.655166984295 0.114205258072812 

31.54            0.150780313520868 65.4593829766098 
! Gamma         !               0.844208121541906 858.792908225212 
! Port Impedance106.630244990431 0.114118335259961 

31.55            0.14568237053016 76.3113068344976 
! Gamma         !               0.844200226924954 859.265705592051 
! Port Impedance106.605364142234 0.114031592873282 

31.56            0.152240265051037 86.5860130730318 
! Gamma         !               0.84419256881335 859.738392609816 
! Port Impedance106.580524339623 0.113945030363769 

31.57            0.167859865068776 94.2046265527152 
! Gamma         !               0.844185146613403 860.210969460385 
! Port Impedance106.555725482845 0.113858647184591 

31.58            0.188780689450849 98.7610420239266 
! Gamma         !               0.844177959733356 860.683436325194 
! Port Impedance106.530967472475 0.113772442791091 

31.59            0.211882910563787 100.827699962604 
! Gamma         !               0.844171007583367 861.15579338524  
! Port Impedance106.50625020941  0.113686416640766 

31.6             0.235098398171879 101.124597222876 