! Touchstone file from project Skycross_parallel_short
! Exported from HFSS 15.0.0
! Variables:
!  CPW_gap = 0.01in
!  CPW_width = 0.02in
!  Ch_impe = 53.1
!  Length = 0.7in
!  Space = 2in
!  Waveport_length = 0.2in
!  Waveport_width = 0.1in
!  dist = 1in
# GHZ S MA R 50.000000
! Modal data exported
! Port[1] = 1:1
! Port[2] = 2:1
! Port[3] = 3:1
! Port[4] = 4:1
1.5              0.665410784867527 -12.3097783864434 0.636151023415343 -111.907046643517 0.0402677994981358 -1.12049930914885 0.0133285650100999 -51.7589352141948 
                0.63615102343884 -111.907046643272 0.63669379880322 -14.7407731163391 0.0837074405955341 20.9291982537583 0.0406688730176723 -1.28630550228199 
                0.0402677994987385 -1.12049931101745 0.0837074405949928 20.9291982547786 0.633432812417532 -14.4018025781647 0.639557250274858 -111.950031841506 
                0.0133285650106396 -51.758935217152 0.0406688730181541 -1.28630550322245 0.63955725029156 -111.950031841401 0.66077434995967 -12.5987481978712 
! Gamma  !      0.475517371643586 54.6810998022273 0.47457743013947 54.6405432935341 0.474935613455995 54.6477833156053 0.474727148051661 54.6321614619376 
! Port Impedance  50               0                50               0                50               0                50               0                

1.51             0.665683785875619 -12.8064176300754 0.634088909201604 -112.580804117577 0.0408458412536373 -2.05888065707288 0.0134205685316839 -52.429857829941 
                0.634088909223487 -112.5808041173  0.636459553035573 -15.2511006646108 0.0846362192339786 20.0978739110226 0.0412498406632086 -2.22774080778249 
                0.0408458412541865 -2.05888065898633 0.0846362192338466 20.0978739119753 0.633228842304722 -14.9103267495364 0.637482421493302 -112.626379008998 
                0.0134205685319531 -52.4298578326239 0.0412498406635703 -2.22774080843834 0.637482421506089 -112.626379009174 0.661053528549737 -13.1013214740555 
! Gamma  !      0.478688554035186 55.043661641615  0.477742310747894 55.0028379865724 0.478102913089497 55.0101256565003 0.477893034260485 54.9944001398942 
! Port Impedance  50               0                50               0                50               0                50               0                

1.52             0.665927930519307 -13.3018743301553 0.632031288220904 -113.256398356842 0.0414306426242908 -3.00329059389559 0.0135142617812038 -53.1042103838192 
                0.632031288241231 -113.25639835653 0.636192824523202 -15.7596560675982 0.0855680874612549 19.2654189682529 0.0418375720171211 -3.17517011097938 
                0.041430642624792 -3.00329059584554 0.0855680874615067 19.2654189691227 0.632992668697204 -15.4171014016049 0.635411742241319 -113.304555514636 
                0.0135142617812258 -53.1042103861922 0.0418375720173615 -3.17517011136626 0.63541174225033 -113.304555515066 0.661303881165544 -13.6026812169985 
! Gamma  !      0.481859648333581 55.4062110999211 0.480907102756669 55.3651203096898 0.48127012481444 55.3724556352274 0.481058832251607 55.3566264536217 
! Port Impedance  50               0                50               0                50               0                50               0                

1.53             0.666143725186332 -13.7961751435901 0.629977568373308 -113.933901504112 0.0420222479434306 -3.9537649375957 0.0136096193115055 -53.7823264069935 
                0.629977568392137 -113.933901503765 0.635894245420617 -16.2664571638578 0.0865029380779545 18.431868828593  0.0424321101230303 -4.12863010103557 
                0.0420222479438889 -3.953764939574  0.0865029380785639 18.4318688293666 0.632724927446953 -15.922145273735 0.633344625100533 -113.9846331768  
                0.0136096193113027 -53.7823264090258 0.0424321101231481 -4.12863010116953 0.633344625105916 -113.984633177455 0.661525921023799 -14.1028537989311 
! Gamma  !      0.485030654061552 55.7687482728749 0.484071805691164 55.7273903583471 0.484437248157348 55.7347733474246 0.484224541550594 55.7188404986688 
! Port Impedance  50               0                50               0                50               0                50               0                

1.54             0.666331682315383 -14.2893472742404 0.627927146184921 -114.613386446792 0.0426207014123095 -4.91033977444921 0.0137066109367615 -54.4645326966055 
                0.627927146202309 -114.613386446409 0.6355644581964  -16.7715226328171 0.0874406604597357 17.5972617732817 0.0430334977891476 -5.08815756650204 
                0.0426207014127301 -4.91033977644794 0.0874406604606757 17.5972617739476 0.632426264495298 -16.4254780157215 0.631280471212994 -114.666684574376 
                0.0137066109363557 -54.4645326982729 0.0430334977891416 -5.08815756639981 0.631280471214904 -114.666684575231 0.661720167822288 -14.6018661490367 
! Gamma  !      0.488201570753297 56.1312732550517 0.487236419087736 56.0896482268526 0.48760428265606 56.0970788875775 0.487390161694298 56.0810423694319 
! Port Impedance  50               0                50               0                50               0                50               0                

1.55             0.666492320859513 -14.7814185521721 0.625879406678058 -115.294926870222 0.043226047168384 -5.87305156325547 0.0138052014854074 -55.1511488714414 
                0.625879406694062 -115.294926869802 0.635204115952239 -17.2748721102824 0.0883811406455507 16.7616391107958 0.0436417776521202 -6.05378949712156 
                0.0432260471687716 -5.8730515652672 0.0883811406467936 16.7616391113443 0.632097336176679 -16.9271203046311 0.629218670152099 -115.350783100699 
                0.0138052014848197 -55.1511488727247 0.0436417776519892 -6.0537894968003 0.629218670150697 -115.350783101727 0.661887148204313 -15.0997458340186 
! Gamma  !      0.491372397954103 56.4937861398956 0.490400942493403 56.4518940083851 0.490771227859395 56.4593723490412 0.490555692230531 56.4432321591777 
! Port Impedance  50               0                50               0                50               0                50               0                

1.56             0.666626166741804 -15.2724175177245 0.623833723223594 -115.978597315075 0.0438383293608464 -6.84193724542578 0.0139053505443954 -55.842486922619 
                0.623833723238269 -115.978597314619 0.634813882715947 -17.7765263104733 0.0893242614467128 15.9250453308421 0.0442569922475722 -7.02556319175026 
                0.0438383293612058 -6.84193724744308 0.0893242614482308 15.9250453312652 0.631738809495883 -17.4270939682844 0.62715859977542 -116.037003021594 
                0.0139053505436462 -55.8424869235038 0.0442569922473151 -7.02556319122766 0.627158599770877 -116.037003022772 0.662027396215491 -15.5965211435309 
! Gamma  !      0.494543135220032 56.8562870197409 0.493565375465543 56.8141277950149 0.493938083326833 56.8216538240623 0.493721132717741 56.8054099600648 
! Port Impedance  50               0                50               0                50               0                50               0                

1.57             0.666733753302013 -15.7623735106335 0.621789457374006 -116.664473239096 0.044457592233878 -7.81703436150253 0.0140070121941932 -56.538850760361 
                0.621789457387405 -116.664473238603 0.634394433706106 -18.2765071548963 0.0902699025786373 15.0875282634495 0.0448791840877459 -8.00351637303665 
                0.0444575922342138 -7.81703436351838 0.0902699025804022 15.0875282637408 0.631351362376325 -17.9254221156853 0.625099626057945 -116.725419537797 
                0.0140070121933022 -56.5388507608374 0.0448791840873619 -8.00351637233068 0.625099626050435 -116.7254195391  0.662141453751622 -16.0922211807184 
! Gamma  !      0.497713782117619 57.2187759858335 0.496729717571602 57.1763496777257 0.497104848628216 57.1839234038    0.496886482724715 57.1675758631648 
! Port Impedance  50               0                50               0                50               0                50               0                

1.58             0.666815621732848 -16.2513167644668 0.619745958675468 -117.352631083473 0.0450838802181119 -8.7983811747115 0.0141101347338954 -57.2405357576338 
                0.619745958687646 -117.352631082943 0.633946455565801 -18.7748379083782 0.0912179408172397 14.2491392434201 0.0455083957466585 -8.98768730954529 
                0.0450838802184284 -8.7983811767189 0.0912179408192229 14.2491392435749 0.630935683876702 -18.4221292747225 0.623041102904067 -117.416108852057 
                0.0141101347328817 -57.2405357576968 0.0455083957461468 -8.98768730867457 0.62304110289377 -117.416108853463 0.662229870996336 -16.58687595812  
! Gamma  !      0.500884338223581 57.5812531283513 0.499893968388819 57.538559746435  0.500271523343452 57.5461811783467 0.500051741830283 57.5297299584829 
! Port Impedance  50               0                50               0                50               0                50               0                

1.59             0.666872321504459 -16.7392785066388 0.617702564457207 -118.043148344167 0.0457172380308087 -9.78601680218921 0.0142146603957448 -57.9478282911352 
                0.617702564468217 -118.043148343601 0.633470646562755 -19.2715433226007 0.0921682501821416 13.4099332804129 0.0461446699532014 -9.97811494606437 
                0.04571723803111 -9.78601680418133 0.0921682501843146 13.4099332804278 0.630492474373306 -18.9172415374785 0.620982371936478 -118.109148241237 
                0.0142146603946268 -57.9478282907832 0.0461446699525617 -9.97811494504793 0.620982371923578 -118.109148242725 0.66229320684708 -17.0805164992082 
! Gamma  !      0.504054803124545 57.9437185364248 0.50305812750397 57.9007580900145 0.503438107062252 57.9084272367485 0.503216909623053 57.8918723349788 
! Port Impedance  50               0                50               0                50               0                50               0                

1.6              0.666904410775624 -17.2262910642888 0.615658599596105 -118.736103648532 0.046357710785261 -10.7799813545668 0.0143205250482898 -58.6610052797587 
                0.615658599606   -118.73610364793 0.632967716753017 -19.7666497874828 0.09312070214901 12.5699692349387 0.0467880496926254 -10.9748390428887 
                0.046357710785551 -10.7799813565372 0.0931207021513445 12.5699692348118 0.630022445704984 -19.4107867134932 0.618922762259956 -118.804616133757 
                0.014320525047085 -58.6610052789943 0.0467880496918578 -10.9748390417457 0.618922762244643 -118.804616135306 0.662332029327957 -17.5731749458494 
! Gamma  !      0.507225176416783 58.3061722981565 0.506222194513118 58.2629447963094 0.506604599383858 58.2706616670245 0.506381985701144 58.2540030805852 
! Port Impedance  50               0                50               0                50               0                50               0                

1.61             0.666912456790032 -17.7123879763247 0.61361337625437 -119.431576837587 0.0470053441099589 -11.7803160846345 0.0144276578873237 -59.3803337202874 
                0.613613376263199 -119.431576836949 0.632438388105171 -20.2601854907804 0.0940751658935583 11.7293100005591 0.0474385783168732 -11.9779003249299 
                0.0470053441102411 -11.7803160865766 0.0940751658960261 11.7293100002899 0.629526321277664 -19.9027944913473 0.616861590197805 -119.502592192737 
                0.0144276578860491 -59.3803337191165 0.0474385783159782 -11.97790032368  0.61686159018027 -119.502592194329 0.662346915987837 -18.064884671989 
! Gamma  !      0.510395457705959 58.6686145006399 0.509386169021388 58.6251199521581 0.509770999916801 58.6328845561861 0.50954696967194 58.616122282228  
! Port Impedance  50               0                50               0                50               0                50               0                

1.62             0.666897036255924 -18.1976041119471 0.611566193587859 -120.129649054318 0.0476601842780592 -12.7870635458574 0.0145359811136695 -60.1060702196431 
                0.611566193595671 -120.129649053646 0.631883394581815 -20.7521805862815 0.095031508569954 10.888022692589  0.0480962996642398 -12.9873406415686 
                0.0476601842783373 -12.787063547765 0.0950315085725272 10.8880226921784 0.629004836125089 -20.3932966089431 0.61479815899851 -120.203157405233 
                0.0145359811123416 -60.1060702180745 0.0480962996632184 -12.9873406402316 0.614798158978947 -120.203157406849 0.662338454282028 -18.5556804038801 
! Gamma  !      0.513565646606889 59.0310452299789 0.512550050642738 58.9872836434105 0.512937308278662 58.9950959902559 0.512711861151856 58.9782300258444 
! Port Impedance  50               0                50               0                50               0                50               0                

1.63             0.666858735707308 -18.6819757959936 0.609516337422423 -120.830402838431 0.0483222783477154 -13.8002677615629 0.0146454095967837 -60.8384605225504 
                0.609516337429269 -120.830402837724 0.631303482174914 -21.2426673709937 0.095989595626617 10.0461788436142 0.0487612581888685 -14.0032031382259 
                0.0483222783479923 -13.8002677634293 0.0959895956292679 10.0461788430644 0.628458736922242 -20.8823270328735 0.612731758509932 -120.90639417797 
                0.0146454095954179 -60.8384605205965 0.0487612581877223 -14.0032031368217 0.612731758488538 -120.906394179593 0.66230724193573 -19.0455983471951 
! Gamma  !      0.516735742743314 59.3934645713052 0.515713838999754 59.3494359549465 0.516103524095849 59.3572960542857 0.51587665976611 59.3403263964014 
! Port Impedance  50               0                50               0                50               0                50               0                

1.64             0.666798151844746 -19.1655409414568 0.607463079895388 -121.533922227974 0.0489916743138371 -14.8199744056728 0.0147558505230529 -61.5777390329642 
                0.607463079901312 -121.533922227234 0.63069940889134 -21.7316804717371 0.0969492911626614 9.20385460613807 0.0494334991006189 -15.0255324407051 
                0.0489916743141158 -14.8199744074925 0.0969492911653632 9.20385460545208 0.627888781947719 -21.3699221472907 0.6106616648181  -121.612386440019 
                0.0147558505216643 -61.5777390306396 0.0494334990993504 -15.0255324392537 0.610661664795074 -121.612386441633 0.662253887287339 -19.5346763213793 
! Gamma  !      0.51990574574768 59.7558726087968 0.518877533723449 59.7115769706938 0.519269647003379 59.7194848323742 0.519041365148513 59.7024114779134 
! Port Impedance  50               0                50               0                50               0                50               0                

1.65             0.666715891853684 -19.6483391895554 0.605405679058993 -122.240292868307 0.0496684212718574 -15.8462309959135 0.0148672030275608 -62.324128327034 
                0.605405679064044 -122.240292867536 0.630071944684731 -22.2192570415717 0.0979104583285256 8.36113096268266 0.0501130685158805 -16.0543748534214 
                0.0496684212721406 -15.8462309976802 0.0979104583312524 8.36113096186494 0.62729574099104 -21.8561209526987 0.608587139847402 -122.321219752879 
                0.0148672030261635 -62.3241283243557 0.0501130685144929 -16.0543748519428 0.608587139822944 -122.321219754469 0.662179009609553 -20.0229539016261 
! Gamma  !      0.523075655260926 60.1182694256948 0.52204113445308 60.0737067736452 0.522435676644677 60.0816624076851 0.522205976941265 60.0644853534599 
! Port Impedance  50               0                50               0                50               0                50               0                

1.66             0.666612573698055 -20.1304120577589 0.603343378442369 -122.949602128908 0.050352569594097 -16.8790871004935 0.0149793578079873 -63.077838654766 
                0.603343378446588 -122.949602128105 0.629421871329525 -22.705436966507 0.0988729597746617 7.51809394367169 0.0508000136199472 -17.0897785727176 
                0.0503525695943867 -16.8790871022014 0.0988729597773877 7.51809394272764 0.626680395200697 -22.3409652751118 0.606507430918664 -123.032981428474 
                0.0149793578065946 -63.0778386517535 0.0508000136184446 -17.089778571232 0.606507430892973 -123.032981430027 0.662083239406083 -20.5104725688788 
! Gamma  !      0.526245470932287 60.480655104321  0.525204640835955 60.4358254458757 0.52560161267138 60.443828862463  0.525370494794757 60.4265481052021 
! Port Impedance  50               0                50               0                50               0                50               0                

1.67             0.666488826386785 -20.6118030961917 0.601275406568256 -123.661939228539 0.0510441711193196 -17.9185945593106 0.0150921967191889 -63.8390674268455 
                0.601275406571689 -123.661939227707 0.628749982232761 -23.1902630829602 0.0998366581525139 6.67483485342244 0.0514943828416192 -18.1317939165348 
                0.0510441711196181 -17.9185945609538 0.0998366581552148 6.67483485235834 0.626043536868393 -22.8244999860436 0.604421770261299 -123.747760655587 
                0.0150921967178138 -63.8390674235202 0.051494382840007 -18.1317939150617 0.604421770234574 -123.747760657089 0.661967218681646 -20.9972758682853 
! Gamma  !      0.529415192419104 60.8430297260941 0.528368052527276 60.7979330685588 0.52876745474315 60.8059842780508 0.52853491836739 60.7885998143999 
! Port Impedance  50               0                50               0                50               0                50               0                

1.68             0.666345290210639 -21.0925580528697 0.599200976420395 -124.377395369349 0.0517432793560826 -18.9648077208221 0.015205592346884 -64.6079986823195 
                0.599200976423083 -124.377395368489 0.628057082178953 -23.6737814064498 0.10080141667242 5.83145050457376 0.0521962260407624 -19.180473571784 
                0.0517432793563919 -18.9648077223949 0.100801416675073 5.83145050339692 0.625385969144715 -23.3067732338048 0.602329374475348 -124.465648635304 
                0.0152055923455386 -64.6079986787049 0.0521962260390466 -19.1804735703432 0.602329374447789 -124.465648636744 0.661831601182685 -21.4834095765645 
! Gamma  !      0.532584819386637 61.2053933715457 0.531531369189964 61.160029721983  0.5319332025275  61.1681287349056 0.531699247325398 61.1506405614273 
! Port Impedance  50               0                50               0                50               0                50               0                

1.69             0.666182616946638 -21.5727250482504 0.597119284857073 -125.096063880508 0.052449949700482 -20.0177836957846 0.0153194075587347 -65.3848025319932 
                0.597119284859053 -125.09606387962 0.627343987003017 -24.1560413720324 0.10176709972351 4.98804346127167 0.052905594709615 -20.2358728608429 
                0.0524499497008033 -20.0177836972816 0.101767099726092 4.98804345999017 0.624708505681099 -23.7878366866147 0.600229443938884 -125.186738726085 
                0.0153194075574303 -65.3848025281135 0.0529055947078035 -20.2358728594534 0.600229443910687 -125.186738727454 0.661677052606131 -21.9689218787668 
! Gamma  !      0.535754351507895 61.5677461203366 0.534694590494507 61.5221154855672 0.53509885569962 61.5302623126142 0.53486348134268 61.5126704257891 
! Port Impedance  50               0                50               0                50               0                50               0                

1.7              0.666001470027071 -22.0523547596108 0.595029511965981 -125.818040372006 0.0531642396688987 -21.0775826291652 0.0154334950309773 -66.1696345714386 
                0.595029511967295 -125.818040371094 0.626611523185919 -24.6370960870132 0.102733573561169 4.14472229141763 0.0536225421887252 -21.2980500286685 
                0.0531642396692331 -21.0775826305814 0.10273357356366 4.14472229004029 0.624011970192668 -24.267745788051 0.598121162155805 -125.9111265991  
                0.0154334950297245 -66.1696345673205 0.0536225421868264 -21.2980500273483 0.598121162127167 -125.911126600387 0.661504250773285 -22.4538635549469 
! Gamma  !      0.538923788463467 61.9300880512716 0.537857716118809 61.8841904378765 0.538264413942219 61.892385089909  0.538027620100637 61.8746894861356 
! Port Impedance  50               0                50               0                50               0                50               0                

1.71             0.665802524669922 -22.5315006157993 0.592930820355073 -126.543422899334 0.0538862091463385 -22.1442679916051 0.0155476967486041 -66.9626352564567 
                0.592930820355756 -126.543422898398 0.625860527367317 -25.1170025964854 0.103700707068186 3.301601828273   0.0543471238984737 -22.3670665520846 
                0.053886209146687 -22.144267992935 0.103700707070566 3.30160182680919 0.623297195936119 -24.7465600253861 0.596003695038651 -126.63891040453 
                0.015547696747413 -66.9626352521282 0.054347123896498 -22.3670665508516 0.596003695009766 -126.638910405726 0.661313885765661 -22.9382881772992 
! Gamma  !      0.54209312994136 62.2924192423153 0.541020745748046 62.2462546566369 0.541429876945366 62.2544971446827 0.541191663288015 62.2366978202779 
! Port Impedance  50               0                50               0                50               0                50               0                

1.72             0.665586467967182 -23.0102190029465 0.590822354373621 -127.272312139748 0.0546159206509565 -23.2179068919282 0.0156618434769462 -67.7639292326369 
                0.590822354373708 -127.272312138791 0.625091845769096 -25.5958221622793 0.104668372596312 2.45880344168039 0.0550793975872476 -23.4429874728683 
                0.0546159206513195 -23.2179068931672 0.104668372598563 2.45880344014021 0.622565025096463 -25.2243432113888 0.593876190120557 -127.370190949577 
                0.0156618434758254 -67.7639292281261 0.0550793975852064 -23.4429874717392 0.593876190091615 -127.370190950677 0.661106660019394 -23.4222523183436 
! Gamma  !      0.54526237563685 62.6547397706061 0.544183679074526 62.6083082187503 0.544595244406343 62.616598554003  0.544355610600765 62.5986955052026 
! Port Impedance  50               0                50               0                50               0                50               0                

1.73             0.665353998927335 -23.4885694817586 0.588703239257216 -128.004811580934 0.0553534396153295 -24.2985704122908 0.0157757542023323 -68.5736246092805 
                0.588703239256744 -128.004811579956 0.624306333523256 -26.0736205559312 0.10563644689564 1.61645531912998 0.055819423597421 -24.5258817562986 
                0.0553534396157074 -24.2985704134342 0.105636446897746 1.61645531752412 0.621816308075968 -25.7011637801927 0.591737775689972 -128.105071888986 
                0.0157757542012903 -68.5736246046171 0.0558194235953271 -24.5258817552887 0.591737775661161 -128.105071889982 0.660883288374508 -23.9058157707911 
! Gamma  !      0.54843152525233 63.0170497124707 0.547346515797561 62.9703512003085 0.547760516029503 62.9786893941272 0.547519461741892 62.9606826170862 
! Port Impedance  50               0                50               0                50               0                50               0                

1.74             0.665105828467896 -23.9666150170621 0.586572580189855 -128.741027722893 0.0560988346850252 -25.3863339676875 0.0158892355393421 -69.3918121664409 
                0.586572580188854 -128.741027721897 0.623504853897143 -26.5504683663124 0.106604812139963 0.77469275684649 0.0565672651504078 -25.6158226768804 
                0.0560988346854178 -25.3863339687308 0.10660481214191 0.774692755186076 0.621051902678217 -26.1770950978684 0.589587559841195 -128.843659928912 
                0.0158892355383863 -69.3918121616556 0.0565672651482757 -25.6158226760043 0.589587559812698 -128.843659929799 0.660644498075017 -24.3890417797619 
! Gamma  !      0.551600578497171 63.3793491434389 0.550509255623332 63.3323836766076 0.550925691526131 63.340769740516  0.550683216421326 63.3226592313088 
! Port Impedance  50               0                50               0                50               0                50               0                

1.75             0.664842679353522 -24.4444222203137 0.584429461275656 -129.48107029397 0.0568521780349696 -26.4812776916598 0.0160020811019697 -70.2185644820376 
                0.584429461274157 -129.481070292957 0.622688277408481 -27.0264413225912 0.107573357057122 -0.0663415389865245 0.0573229886521439 -26.7128882329767 
                0.0568521780353762 -26.481277692599 0.107573357058896 -0.0663415406901549 0.620272673179639 -26.6522157883681 0.58742462943316 -129.586065045065 
                0.0160020811011071 -70.2185644771612 0.0573229886499894 -26.7128882322469 0.587424629405157 -129.58606504584 0.660391028715503 -24.8719972880747 
! Gamma  !      0.554769535087585 63.741638138256  0.553671898264773 63.6944057221611 0.554090770614312 63.7028396678471 0.553846874355785 63.6846254224683 
! Port Impedance  50               0                50               0                50               0                50               0                

1.76             0.664565286074865 -24.9220616058436 0.582272944412141 -130.225052481982 0.05761354570408 -27.5834868501971 0.0161140708358459 -71.053934963974 
                0.582272944410175 -130.225052480954 0.621857480822147 -27.5016206332391 0.108541978174283 -0.906497140835496 0.058086664020445 -27.8171615920929 
                0.0576135457045  -27.5834868510288 0.108541978175874 -0.906497142570485 0.619479489280339 -27.1266100755497 0.585248048948288 -130.332400716105 
                0.0161140708350819 -71.0539349590377 0.058086664018285 -27.8171615915202 0.585248048920953 -130.332400716765 0.660123632129362 -25.3547531953818 
! Gamma  !      0.557938394746494 64.1039167708974 0.556834443441443 64.0564174107141 0.557255753018806 64.0648992500289 0.557010435268652 64.0465812643932 
! Port Impedance  50               0                50               0                50               0                50               0                

1.77             0.66427439466281 -25.3996078616539 0.580102068056245 -130.97309118149 0.0583830179485583 -28.6930522859731 0.0162249703084581 -71.8979567698582 
                0.580102068053837 -130.973091180449 0.621013346019927 -27.9760933418295 0.109510581189138 -1.74561557832853 0.0588583650357385 -28.9287315685624 
                0.0583830179489906 -28.6930522866937 0.109510581190536 -1.7456155800829 0.618673224925397 -27.6003681420266 0.583056859242412 -131.082784173332 
                0.0162249703077981 -71.8979567648946 0.0588583650335913 -28.928731568156 0.583056859215916 -131.082784173873 0.659843072213494 -25.8373846319775 
! Gamma  !      0.561107157203405 64.4661851145809 0.559996890879421 64.4184188152557 0.560420638470923 64.4269485602135 0.560173898889853 64.4085268301563 
! Port Impedance  50               0                50               0                50               0                50               0                

1.78             0.663970762432229 -25.8771401356566 0.57791584587348 -131.725307258326 0.0591606796141679 -29.8100708952324 0.0163345299541267 -72.7506415941679 
                0.57791584587066 -131.725307257273 0.620156758733887 -28.449952700425 0.110479082479172 -2.58353000686982 0.0596381697166981 -30.0476931353657 
                0.0591606796146109 -29.8100708958393 0.110479082480371 -2.58353000863141 0.617854756987143 -28.0735865056349 0.580850076176111 -131.837336667802 
                0.0163345299535744 -72.7506415892094 0.0596381697145827 -30.0476931351326 0.580850076150617 -131.837336668224 0.659550124683666 -26.3199712481716 
! Gamma  !      0.564275822194288 64.82844324178   0.563159240311185 64.7804100080321 0.563585426708407 64.7889876708092 0.563337264955737 64.7704621920869 
! Port Impedance  50               0                50               0                50               0                50               0                

1.79             0.663655157648858 -26.3547423383006 0.575713265259835 -132.481825832575 0.0599466205277151 -30.9346461398367 0.0164424842702864 -73.6119782995561 
                0.575713265256626 -132.481825831513 0.619288607133177 -28.9232985613917 0.11144741076246 -3.42006486671873 0.0604261607222585 -31.1741479717982 
                0.0599466205281676 -30.9346461403269 0.111447410763456 -3.42006486847529 0.617024963798149 -28.5463684143588 0.578626689116817 -132.596183756083 
                0.0164424842698454 -73.6119782946369 0.0604261607201949 -31.1741479717432 0.578626689092485 -132.596183756386 0.659245576754241 -26.8025975201866 
! Gamma  !      0.567444389461457 65.1906912242361 0.566321491475506 65.1423910605589 0.566750117475318 65.1510166534934 0.566500533208966 65.1323874217837 
! Port Impedance  50               0                50               0                50               0                50               0                

1.8              0.663328359112159 -26.8325034626145 0.573493285725026 -133.242776581295 0.0607409359078371 -32.066888597176 0.0165485509614453 -74.4819313652521 
                0.573493285721454 -133.242776580226 0.618409780253247 -29.3962377885375 0.112415508924885 -4.25503553309173 0.0612224257813946 -32.3082050486972 
                0.0607409359082968 -32.0668885975486 0.112415508925675 -4.25503553483119 0.616184723523788 -29.0188242606113 0.576385659300231 -133.359455605942 