! Touchstone file from project two_antenna_SIW_mirror_39GHz
! Exported from HFSS 2017.0.0
! Variables:
!  $D1 = 2.13371266002845mm
!  $Disk_shift = -0.15647226173542mm
!  $G1 = 0.245193885882145mm
!  $G2 = 0.612984714705363mm
!  $S0 = 15mil
!  $S1 = 10mil
!  $S2 = 4.9038777176429mm
!  $SL = 1.47116330014225mm
!  $SW = 0.588465326117148mm
!  $VL = 1.83895414411609mm
!  $VW = 0.622792470140648mm
!  $W = 3.42712690890829mm
!  $W1 = 3.42712690890829mm
!  $length = 24.5193885882145mm
!  $offset = 1.48648648648649mm
!  $patch_step = 3.37141591572887mm
!  $slot_side = 0.668563300142248mm
!  $slot_step = 1.90025261558662mm
!  $substrate_edge = 1.71635720117502mm
!  $width = 7.11237553342817mm
!  leak_gap = 7mm
!Data is not renormalized
# GHZ S MA
! Modal data exported
! Port[1] = 1:1
! Port[2] = 2:1
30               0.374515628070185 151.236747186307 0.681156201987458 -124.554573488334 0.681156201987458 -124.554573488334 0.376169195331974 151.637394033294 
! Gamma         !               1.2579440130077  564.921217333192 1.25794534312017 564.920785833309 
! Port Impedance57.4972517104597 0.134421927849944 57.4980188808672 0.134426235478186 

30.02            0.369298442746201 148.850321125206 0.68212596696839 -127.428166029718 0.682125966968389 -127.428166029718 0.371004564564569 149.274232825626 
! Gamma         !               1.25621182226441 566.287499962735 1.25621314541388 566.28706950379  
! Port Impedance57.3967708233539 0.133700954078869 57.3975366521456 0.133705246888951 

30.04            0.363943142995659 146.48499862789  0.683083147010796 -130.303131477356 0.683083147010795 -130.303131477356 0.365701514314736 146.93267678194  
! Gamma         !               1.25449400468175 567.651400833611 1.25449532093981 567.650971408793 
! Port Impedance57.2970140165553 0.132987672441958 57.2977785134105 0.132991950571615 

30.06            0.358456734659978 144.141618414676 0.684024728047365 -133.179564627191 0.684024728047365 -133.179564627191 0.360267399150939 144.613607467961 
! Gamma         !               1.25279039730227 569.012937071803 1.25279170673948 569.012508674375 
! Port Impedance57.1979731094483 0.132281966178236 57.198736283937  0.132286229763253 

30.08            0.352846194924098 141.821080700755 0.68494767130555 -136.057543207056 0.68494767130555 -136.057543207056 0.35470955520756 142.317963259685 
! Gamma         !               1.2511008397085  570.372125610226 1.25110214239443 570.371698233524 
! Port Impedance57.0996400486635 0.131583720812944 57.1004019102478 0.131587969987195 

30.1             0.347118502806054 139.524357246272 0.685848926603694 -138.937127975821 0.685848926603694 -138.937127975821 0.34903532646746 140.046749042894 
! Gamma         !               1.24942517397255 571.728983191722 1.24942646997581 571.728556829156 
! Port Impedance57.0020069055538 0.130892824102861 57.0027674635898 0.130897058998342 

30.12            0.341280674143522 137.252501434172 0.686725445923994 -141.818362900436 0.686725445923994 -141.818362900436 0.343252095943229 137.801045921378 
! Gamma         !               1.24776324460678 573.083526371998 1.24776453399508 573.083101017047 
! Port Impedance56.9050658737318 0.130209165983168 56.9058251374712 0.130213386730033 

30.14            0.335339800369654 135.006658318184 0.687574197196616 -144.701275413059 0.687574197196616 -144.701275413059 0.337367321085699 135.582020859479 
! Gamma         !               1.24611489851582 574.435771522506 1.24611618135595 574.435347168722 
! Port Impedance56.808809266666  0.129532638515809 56.8095672452575 0.129536845242403 

30.16            0.329303090358069 132.788074574427 0.68839217821948 -147.585876750035 0.68839217821948 -147.585876750035 0.331388572724088 133.390936172776 
! Gamma         !               1.24447998494964 575.785734833264 1.24448126130749 575.785311474267 
! Port Impedance56.713229515334  0.128863135839288 56.7139862178251 0.128867328672183 

30.18            0.323177914608326 130.598108277498 0.689176430628769 -150.472162374176 0.689176430628769 -150.472162374176 0.32532357682147 131.229158764749 
! Gamma         !               1.24285835545781 577.133432315626 1.24285962539828 577.133009945104 
! Port Impedance56.6183191659326 0.128200554119873 56.619074601271  0.128204733183899 

30.2             0.316971851037249 128.438238404911 0.689924053826385 -153.360112481284 0.689924053826384 -153.360112481284 0.31918025831024 129.098168986418 
! Gamma         !               1.24124986384476 578.478879804995 1.24125112743178 578.478458416703 
! Port Impedance56.5240708776408 0.127544791504141 56.524825054676  0.127548956922417 

30.22            0.310692731636565 126.310073951508 0.690632218762509 -156.249692591334 0.690632218762509 -156.249692591334 0.312966786252914 126.999568969362 
! Gamma         !               1.23965436612618 579.822092963484 1.23965562342257 579.821672551244 
! Port Impedance56.4304774204367 0.126895748072843 56.4312303479215 0.126899899966808 

30.24            0.304348689252245 124.215362506982 0.691298181464359 -159.140854224172 0.691298181464359 -159.140854224172 0.306691619552296 124.935090249248 
! Gamma         !               1.23807172048631 581.163087282527 1.2380729715538  581.162667840225 
! Port Impedance56.3375316729649 0.12625332579603 56.3382833595568 0.126257464285474 

30.26            0.29794820373439 122.155998113788 0.691919296196346 -162.033535658926 0.691919296196346 -162.033535658926 0.300363552409915 122.906600456014 
! Gamma         !               1.23650178723626 582.501878085436 1.23650303213552 582.501459607024 
! Port Impedance56.2452266204541 0.125617428489405 56.2459770747168 0.125621553692499 

30.28            0.291500146697063 120.134028178183 0.692493028132333 -164.927662775641 0.692493028132333 -164.927662775641 0.293991758701039 120.916108796998 
! Gamma         !               1.2349444287733  583.838480529916 1.23494566756402 583.838063009408 
! Port Impedance56.1535553526832 0.124987961771877 56.1543045830879 0.1249920738052  

30.3             0.285013824113338 118.151659152396 0.693016965417683 -167.823149976968 0.693016965417683 -167.823149976968 0.287585834396181 118.965769999503 
! Gamma         !               1.23339950954118 585.172909610527 1.23340074228213 585.172493041999 
! Port Impedance56.0625110619945 0.12436483302425 56.0632590769212 0.124368932002814 

30.32            0.278499015950084 116.211260639624 0.693488830497415 -170.719901186979 0.693488830497415 -170.719901186979 0.281155837111087 117.057886308562 
! Gamma         !               1.23186689599128 586.505180161097 1.23186812274038 586.504764538688 
! Port Impedance55.9720870413523 0.12374795134904 55.9728338490915 0.123752037386319 

30.34            0.271966012016943 114.315367493936 0.693906490587194 -173.617810923444 0.693906490587194 -173.617810923444 0.27471232180689 115.194907053151 
! Gamma         !               1.23034645654474 587.835306857097 1.23034767735915 587.834892175008 
! Port Impedance55.8822766824474 0.123137227531384 55.883022291201  0.123141300739319 

30.36            0.265425643161442 112.46667939321  0.694267967166042 -176.516765439176 0.694267967166042 -176.516765439176 0.2682663715869  113.379425199744 
! Gamma         !               1.22883806155549 589.163304217968 1.22883927649159 589.162890470456 
! Port Impedance55.7930734738434 0.122532574001013 55.7938178917263 0.122536634489989 

30.38            0.258889306883483 110.668057253808 0.694571444373657 -179.416643927323 0.694571444373657 -179.416643927323 0.261829622443517 111.61417020635  
! Gamma         !               1.22734158327399 590.489186609397 1.22734279238743 590.488773790782 
! Port Impedance55.7044709991665 0.121933904795335 55.7052142342077 0.121937952674028 

30.4             0.252368986363385 108.922515731186 0.694815276201   177.682680215213 0.694815276201   177.682680215213 0.255414280695197 109.9019963752   
! Gamma         !               1.22585689581195 591.812968245566 1.22585809915762 591.812556350223 
! Port Impedance55.6164629353369 0.121341135522569 55.6172049954798 0.1213451708986  

30.42            0.245877261793518 107.233210912216 0.694997992370322 174.781338072683 0.694997992370322 174.781338072683 0.249033131716918 108.245865782003 
! Gamma         !               1.22438387510769 593.134663191341 1.22438507273979 593.134252213704 
! Port Impedance55.5290430508357 0.120754183326445 55.5297839439416 0.120758206307232 

30.44            0.239427312770437 105.603422156909 0.695118302809877 171.879463850794 0.695118302809877 171.879463850794 0.242699538407255 106.648824741163 
! Gamma         !               1.22292239889242 594.45428536444  1.22292359086441 594.453875298998 
! Port Impedance55.442205204018  0.120172966855521 55.4429449378664 0.120176977545627 

30.46            0.233032910338533 104.036526896233 0.695175100639091 168.977193480001 0.695175100639091 168.977193480001 0.236427427651858 105.113972660319 
! Gamma         !               1.22147234665716 595.771848537541 1.22147353302181 595.77143937884  
! Port Impedance55.3559433414601 0.119597406225709 55.356681923749  0.119601404728383 

30.48            0.22670839707684 102.535967051041 0.695167463591742 166.074663189845 0.695167463591742 166.074663189845 0.230231262841372 103.644422059963 
! Gamma         !               1.22003359962047 597.087366340369 1.22003478042983 597.086958083009 
! Port Impedance55.2702514963421 0.119027422989274 55.2709889346895 0.119031409406581 

30.5             0.220468653389969 101.105205622615 0.695094653817424 163.172008062754 0.695094653817424 163.172008062754 0.224126000291643 102.243248506828 
! Gamma         !               1.2186060406969  598.400852261732 1.21860721600232 598.400444900367 
! Port Impedance55.1851237868691 0.11846294010347 55.1858600888143 0.118466914536212 

30.52            0.214329047910824 99.7476719441023 0.69495611601507 160.269360576072 0.69495611601507 160.269360576072 0.218127027212384 100.913429262396 
! Gamma         !               1.21718955446607 599.712319651528 1.21719072431822 599.711913180866 
! Port Impedance55.1005544147259 0.117903881899719 55.1012895877308 0.117907844447429 

30.54            0.208305369663698 98.4666941094203 0.694751473866246 157.366849141212 0.694751473866246 157.366849141212 0.212250078704602 99.6577696169441 
! Gamma         !               1.21578402714253 601.021781722711 1.2157851915914  601.021376137512 
! Port Impedance55.0165376635669 0.117350174053633 55.0172717150167 0.117354124814586 

30.56            0.202413739400233 97.2654172575604 0.69448052474995 154.464596648996 0.69448052474995 154.464596648996 0.20651113117604 98.4788162082903 
! Gamma         !               1.21438934654619 602.329251553225 1.21439050564112 602.328846848299 
! Port Impedance54.9330678975384 0.116801743555824 54.9338008347431 0.116805682627053 

30.58            0.196670497351029 96.1467067405578 0.694143232734574 151.56271903028  0.694143232734574 151.56271903028  0.20092626960092 97.3787571595881 
! Gamma         !               1.21300540207351 603.634742087898 1.21300655586316 603.634338258109 
! Port Impedance54.8501395598335 0.11625851868346 54.8508713900288 0.116262446160779 

30.6             0.191092064593177 95.1130358041438 0.6937397198561  148.661323840851 0.6937397198561  148.661323840851 0.195511526282396 96.3593096569472 
! Gamma         !               1.21163208466918 604.938266140307 1.21163323320158 604.937863180569 
! Port Impedance54.7677471712789 0.115720428972554 54.7684779016271 0.115724344950573 

30.62            0.185694775398106 94.166358322129  0.693270255704213 145.760508879533 0.693270255704213 145.760508879533 0.190282689282569 95.4215966585483 
! Gamma         !               1.21026928679855 606.239836394613 1.21027043012109 606.239434299888 
! Port Impedance54.6858853289516 0.115187405190951 54.6866149665427 0.115191309763099 

30.64            0.180494678390171 93.307968397314  0.692735245349698 142.860360848177 0.692735245349698 142.860360848177 0.185255079549602 94.5660157901762 
! Gamma         !               1.20891690242057 607.539465407348 1.20891804058002 607.539064172649 
! Port Impedance54.6045487048262 0.114659379312006 54.605277256679  0.114663272570549 

30.66            0.175507305219014 92.5383502912126 0.692135215656782 139.960954062023 0.692135215656782 139.960954062023 0.180443297071973 93.7921051032459 
! Gamma         !               1.20757482696134 608.837165609192 1.20757596000385 608.836765229578 
! Port Impedance54.5237320444514 0.114136284488922 54.5244595175144 0.114140166524983 

30.68            0.170747406827214 91.8570241364002 0.691470800033016 137.062349218597 0.691470800033016 137.062349218597 0.175860938178487 93.0984121548451 
! Gamma         !               1.20624295728826 610.132949306699 1.20624408525938 610.132549777278 
! Port Impedance54.4434301656542 0.113618055029732 54.4441565668067 0.113621925933309 

30.7             0.166228659350707 91.2623951033    0.690742721676523 134.164592233044 0.690742721676523 134.164592233044 0.171520288381907 92.4823746428014 
! Gamma         !               1.20492119168467 611.426828684006 1.20492231462935 611.426429999933 
! Port Impedance54.363637957273  0.113104626372911 54.3643632933257 0.113108486232893 

30.72            0.161963344235894 90.7516159197158 0.689951775386026 131.267713147462 0.689951775386026 131.267713147462 0.167431997860351 91.9402223380086 
! Gamma         !               1.20360942982508 612.718815804506 1.20361054778769 612.718417960982 
! Port Impedance54.284350377916  0.112595935063586 54.2850746556123 0.112599783967776 

30.74            0.15796201021391 90.3204745467341 0.689098808002835 128.37172512156  0.689098808002835 128.37172512156  0.163604749608287 91.4669109780136 
! Gamma         !               1.20230757275095 614.008922612491 1.20230868577528 614.008525604765 
! Port Impedance54.2055624547481 0.112091918730353 54.2062856807649 0.112095756765478 

30.76            0.15423312813183 89.963319973886  0.688184697555988 125.476623511697 0.688184697555988 125.476623511697 0.160044933178591 91.056098767445  
! Gamma         !               1.20101552284687 615.297160934773 1.20101663097615 615.296764758136 
! Port Impedance54.1272692823016 0.111592516062651 54.1279914632502 0.111596343314383 

30.78            0.150782752952565 89.6730390435187 0.687210331182111 122.582385045193 0.687210331182111 122.582385045193 0.156756339384162 90.7001748584958 
! Gamma         !               1.19973318381738 616.583542482269 1.1997342870943  616.583147132057 
! Port Impedance54.0494660213128 0.111097666788702 54.0501871637397 0.111101483341668 

30.8             0.147614210016619 89.4410955368036 0.686176581890325 119.68896709673  0.686176581890325 119.68896709673  0.153739892873335 90.3903464737336 
! Gamma         !               1.19846046066422 617.868078851561 1.19846155913089 617.867684323157 
! Port Impedance53.972147897583  0.110607311653993 53.9728680079709 0.110611117591776 

30.82            0.144727824348728 89.257639219782  0.685084284239938 116.796307073684 0.685084284239938 116.796307073684 0.150993439689662 90.1167872214829 
! Gamma         !               1.197197259664   619.150781526435 1.19719835336202 619.150387815262 
! Port Impedance53.8953102008632 0.110121392400278 53.8960292856319 0.110125187805396 

30.84            0.142120711849026 89.1116872341199 0.683934208994989 113.904321917399 0.683934208994989 113.904321917399 0.148511605436223 89.8688439651262 
! Gamma         !               1.19594348834643 620.431661879387 1.19594457731687 620.431268980912 
! Port Impedance53.8189482837621 0.109639851745098 53.8196663492687 0.109643636699028 

30.86            0.139786649240232 88.9913735943411 0.682727036815204 111.012907727749 0.682727036815204 111.012907727749 0.146285736364783 89.6352939561909 
! Gamma         !               1.19469905547297 621.710731173103 1.19470013975637 621.710339082836 
! Port Impedance53.7430575606763 0.109162633361795 53.7437746132168 0.10916640794569 

30.88            0.137716035541429 88.8842554783946 0.68146333103802 108.121939518878 0.68146333103802 108.121939518878 0.144303930770126 89.4046386517431 
! Gamma         !               1.19346387101586 622.988000561918 1.19346495065225 622.98760927541  
! Port Impedance53.6676335067438 0.108689681860005 53.6683495525544 0.108693446153814 

30.9             0.135895951870443 88.7776585881277 0.680143509601443 105.231271114717 0.680143509601443 105.231271114717 0.142551161968231 89.1654165858467 
! Gamma         !               1.1922378461377  624.26348109325  1.19223892116661 624.263090606093 
! Port Impedance53.5926716568174 0.108220942766632 53.5933867020741 0.108224696848884 

30.92            0.134310319188422 88.6590392512434 0.67876781615315 102.340735193924 0.67876781615315 102.340735193924 0.141009487603389 88.9065155795094 
! Gamma         !               1.19102089317133 625.537183709007 1.1910219636318  625.536794016834 
! Port Impedance53.5181676044606 0.107756362507267 53.5188816552805 0.107760106455708 

30.94            0.132940146126895 88.5163390186299 0.677336290387973 99.4501434950887 0.677336290387973 99.4501434950887 0.139658333914016 88.6174648471373 
! Gamma         !               1.18981292560023 626.809119246971 1.18981399153079 626.808730345454 
! Port Impedance53.4441170009634 0.107295888388054 53.4448300634052 0.107299622279584 

30.96            0.13176385231889 88.3383086653618 0.67584873765444 96.5592871946632 0.67584873765444 96.5592871946632 0.138474838691052 88.2886901458843 
! Gamma         !               1.1886138580392  628.079298442161 1.18861491947793 628.078910327014 
! Port Impedance53.3705155543779 0.106839468577996 53.3712276344432 0.106843192488632 

30.98            0.130757647613761 88.1147825097044 0.674304697871965 93.6679374719475 0.674304697871965 93.6679374719475 0.13743423357681 87.9117195481981 
! Gamma         !               1.18742360621557 629.347731928171 1.18742466320005 629.347344595147 
! Port Impedance53.2973590285743 0.106387052091667 53.2980701322078 0.106390766096552 

31               0.129895944800465 87.8368900594968 0.672703413804649 90.7758462776803 0.672703413804649 90.7758462776803 0.136510245348216 87.4793329277764 
! Gamma         !               1.18624208695068 630.614430238488 1.18624313951802 630.614043683376 
! Port Impedance53.2246432423149 0.105938588772343 53.2253533754056 0.105942292945753 

31.02            0.129151783186543 87.4971990852626 0.671043798746094 87.8827473254449 0.671043798746094 87.8827473254449 0.135675496834828 86.9856539582903 
! Gamma         !               1.18506921814178 631.879403807785 1.18507026632861 631.879018026414 
! Port Impedance53.1523640683479 0.105494029275529 53.1530732367295 0.105497723690884 

31.04            0.128497242352505 87.0897911593484 0.669324403683438 84.9883573280943 0.669324403683438 84.9883573280943 0.134901890778269 86.4261885458768 
! Gamma         !               1.18390491874429 633.142662973196 1.18390596258671 633.142277961433 
! Port Impedance53.0805174325183 0.105053325052869 53.08122564197   0.105057009782746 

31.06            0.127903829080395 86.610276550976  0.667543384028975 82.0923775048604 0.667543384028975 82.0923775048604 0.134160963706197 85.797817599033  
! Gamma         !               1.1827491087544  634.404217975567 1.18275014828789 634.403833729317 
! Port Impedance53.0090993128977 0.104616428336433 53.009806569145  0.10462010345258 

31.08            0.127342825137622 86.0557595550806 0.665698466035557 79.1944953887018 0.665698466035557 79.1944953887018 0.133424201180247 85.0987546295812 
! Gamma         !               1.18160170919206 635.664078960689 1.18160274445083 635.663695475899 
! Port Impedance52.9381057389303 0.104183292123374 52.9388120476454 0.10418695769672 

31.1             0.126785588579865 85.4247676900553 0.663786913048922 76.2943869677957 0.663786913048922 76.2943869677957 0.132663310053119 84.3284799029947 
! Gamma         !               1.18046264208427 636.922255980513 1.1804636730952  636.921873253177 
! Port Impedance52.8675327905966 0.103753870160935 52.8682381573996 0.103757526261604 

31.12            0.12620380594028 84.7171588996507 0.661805491797655 73.3917191998647 0.661805491797655 73.3917191998647 0.131850447236885 83.4876629515918 
! Gamma         !               1.17933183044868 638.178758994335 1.17933285698032 638.178377020266 
! Port Impedance52.7973765975936 0.103328116931807 52.7980810280526 0.103331763629132 

31.14            0.125569696706792 83.9340203326922 0.659750438981429 70.4861529433056 0.659750438981429 70.4861529433056 0.130958407705827 82.5780845822909 
! Gamma         !               1.17820919827757 639.433597869976 1.17821022091926 639.43321664544  
! Port Impedance52.727633338531  0.102905987639826 52.728336838163  0.102909625002357 

31.16            0.124856174665504 83.0775709393245 0.657617428492241 67.5773463547259 0.657617428492241 67.5773463547259 0.129960776949228 81.6025684359082 
! Gamma         !               1.17709467052214 640.686782384933 1.17709568903508 640.686401905988 
! Port Impedance52.6582992401429 0.102487438195993 52.6590018144146 0.102491066291512 

31.18            0.124036972990837 82.1510784930859 0.655401539693464 64.6649588085506 0.655401539693464 64.6649588085506 0.128832054893422 80.5649310449266 
! Gamma         !               1.17598817307703 641.938322227516 1.17598918748896 641.93794249026  
! Port Impedance52.5893705765159 0.102072425204818 52.590072230844  0.102076044100347 

31.2             0.123086741501464 81.1588001329352 0.653097227289696 61.748655400687  0.653097227289696 61.748655400687  0.127547759555136 79.4699584941261 
! Gamma         !               1.17488963276529 643.188226997961 1.17489064310816 643.187847998541 
! Port Impedance52.5208436683307 0.101660905950972 52.5215444080829 0.101664515712788 

31.22            0.1219811254629  80.1059544375412 0.650698293448358 58.8281121047191 0.650698293448358 58.8281121047191 0.126084519549867 78.3234174618181 
! Gamma         !               1.1737989773235  644.436506209536 1.17379998362946 644.436127944133 
! Port Impedance52.4527148821204 0.101252838386248 52.4534147126156 0.101256439079894 

31.24            0.120696835927869 78.9987326386404 0.648197862983662 55.9030216556097 0.648197862983662 55.9030216556097 0.12442016526929 77.1321088236232 
! Gamma         !               1.17271613538734 645.683169289618 1.17271713768813 645.682791754449 
! Port Impedance52.3849806295411 0.100848181116811 52.3856795560504 0.100851772807103 

31.26            0.119211722105083 77.8443570520995 0.645588362586192 52.9731002421539 0.645588362586192 52.9731002421539 0.122533829290301 75.9039733534628 
! Gamma         !               1.17164103647739 646.928225580759 1.17164203480411 646.927848772072 
! Port Impedance52.3176373666584 0.100446893390739 52.3183353944054 0.100450476141781 

31.28            0.117504856885931 76.6511963616658 0.642861505277852 50.0380950951255 0.642861505277852 50.0380950951255 0.12040606764253 74.6482616265012 
! Gamma         !               1.17057361098478 648.171684341733 1.17057460536802 648.171308255813 
! Port Impedance52.2506815932465 0.10004893508584 52.2513787274081 0.100052508961037 

31.3             0.11555664770905 75.4289503020016 0.640008281492304 47.0977930628457 0.640008281492304 47.0977930628457 0.118019015249722 73.3757843974807 
! Gamma         !               1.16951379015609 649.413554748573 1.16951478062751 649.413179381733 
! Port Impedance52.184109852101  0.0996542666977428 52.1848060978077 0.0996578317598153 

31.32            0.113348986730342 74.1889209589953 0.637018958423884 44.1520302691968 0.637018958423884 44.1520302691968 0.115356591580922 72.0992660699047 
! Gamma         !               1.16846150608209 650.653845895579 1.16846249267382 650.653471244166 
! Port Impedance52.1179187283651 0.0992628493282163 52.1186140907019 0.0992664056392576 

31.34            0.110865457225325 72.9443949649494 0.633883089550592 41.2007029502645 0.633883089550592 41.2007029502645 0.112404776885626 70.8338332655143 
! Gamma         !               1.16741669168583 651.892566796322 1.16741767442857 651.892192856712 
! Port Impedance52.0521048488684 0.0988746446737467 52.052799332875  0.0988781922953186 

31.36            0.108091617916378 71.7111712899536 0.630589536513627 38.2437795640521 0.630589536513627 38.2437795640521 0.109151986237151 69.597684286997  
! Gamma         !               1.16637928070724 653.129726384627 1.16638025963081 653.129353153228 
! Port Impedance51.986664881478  0.0984896150153955 51.9873584921496 0.0984931540076368 

31.38            0.105015394472587 70.5082846150481 0.627126505819132 35.2813142620455 0.627126505819132 35.2813142620455 0.105589579389003 68.4130054471947 
! Gamma         !               1.16534920769051 654.365333515539 1.16535018282433 654.364960988788 
! Port Impedance51.9215955344621 0.0981077232055907 51.9222882767502 0.0981112536286509 

31.4             0.101627619351541 69.3589966708384 0.623481603105395 32.3134618006499 0.623481603105395 32.3134618006499 0.101712561462152 67.3072297515852 
! Gamma         !               1.164326407972   655.599396966278 1.16432737934522 655.599025140644 
! Port Impedance51.8568935558664 0.0977289326596008 51.8575854346788 0.097732454572955 

31.42            0.0979227800228106 68.2921607318924 0.619641907974611 29.3404939533533 0.619641907974611 29.3404939533533 0.097520556514294 66.3147763497642 
! Gamma         !               1.16331081766812 656.83192543718  1.1633117853096  656.831554309161 
! Port Impedance51.7925557329007 0.0973532073444659 51.7932467531022 0.0973567208068883 

31.44            0.0939000657086221 67.3441122254371 0.615594072601069 26.362817459279  0.615594072601069 26.362817459279  0.0930191793585765 65.4794705694437 
! Gamma         !               1.16230237366336 658.062927552619 1.16230333760166 658.062557118743 
! Port Impedance51.728578891338  0.0969805117687273 51.729269057751  0.0969840168383521 

31.46            0.0895648512095977 66.5613066543251 0.611324447470246 23.3809935088425 0.611324447470246 23.3809935088425 0.0882220009009177 64.8579285440846 
! Gamma         !               1.1613010135985  659.292411861918 1.16130197386186 659.292042118742 
! Port Impedance51.6649598949245 0.096610810972509 51.6656492123295 0.0966143077068485 

31.48            0.0849308348889335 66.0040189697532 0.606819237642667 20.3957587206559 0.606819237642667 20.3957587206558 0.0831534152749655 64.5242944899984 
! Gamma         !               1.16030667585905 660.520386840245 1.16030763247543 660.520017784354 
! Port Impedance51.6016956448005 0.0962440705177792 51.6023841179366 0.0962475589737358 

31.5             0.0800231752771058 65.7515306163986 0.602064692833416 17.408047503634  0.602064692833416 17.408047503634  0.0778528978782013 64.5768113940914 
! Gamma         !               1.15931929956392 661.746860889496 1.15932025256095 661.746492517504 
! Port Impedance51.5387830789325 0.0958802564788195 51.5394707124977 0.0958837367126951 

31.52            0.0748831748370451 65.9093195356637 0.597047334308411 14.4190156224335 0.597047334308411 14.4190156224335 0.0723814221801191 65.1466666080215 
! Gamma         !               1.15833882455428 662.971842339165 1.15833977395929 662.971474647714 
! Port Impedance51.476219171555  0.0955193354328972 51.4769059702069 0.0955228075004019 

31.54            0.0695753723493653 66.6186773161744 0.59175422107421 11.4300646911348 0.59175422107421 11.4300646911348 0.0668311904323299 66.409005995137  
! Gamma         !               1.15736519138262 664.195339447199 1.15736613722265 664.194972432958 
! Port Impedance51.4140009326232 0.0951612744511379 51.4146869009795 0.0951647384073983 

31.56            0.0641983292157191 68.0684224121945 0.586173257030142 8.44286720783711 0.586173257030142 8.44286720783711 0.0613402144615812 68.5939141144413 
! Gamma         !               1.15639834130206 665.417360400841 1.15639928360385 665.416994060508 
! Port Impedance51.3521254072755 0.0948060410895944 51.3528105499145 0.094809496989162 

31.58            0.058900761032974 70.5056407361124 0.580293539614472 5.45939161054287 0.580293539614472 5.45939161054285 0.0561130668613837 71.9890407972724 
! Gamma         !               1.15543821625582 666.637913317462 1.1554391550458  666.637547647761 
! Port Impedance51.2905896753062 0.0944536033805055 51.2912739967668 0.0944570512773648 

31.6             0.0539041790465661 74.2346316840349 0.57410574897325 2.48192668211322 0.57410574897325 2.48192668211322 0.0514463355351334 76.9112107756037 
! Gamma         !               1.15448475886684 667.857006245378 1.15448569417115 667.85664124306  
! Port Impedance51.2293908506468 0.094103929823741 51.2300743554296 0.0941073697713171 

31.62            0.0495293317174981 79.5759128776426 0.567602574790217 -0.48689554013798 0.567602574790217 -0.48689554013798 0.047747350352963 83.6019784259376 
! Gamma         !               1.15353791242767 669.074647164657 1.1535388442722  669.074282826499 
! Port Impedance51.1685260808581 0.0937569893784287 51.1692087734256 0.0937604214295955 

31.64            0.0462110809347077 86.7340104216895 0.56077917564094 -3.44407938440456 0.56077917564094 -3.44407938440456 0.0455135523434263 92.0052509627337 
! Gamma         !               1.15259762089054 670.290843987911 1.15259854930084 670.290480310718 