! Touchstone file from project two_SIW_antenna_39GHz_50mil
! Exported from HFSS 2017.0.0
! Variables:
!  $D1 = 1.82692307692308mm
!  $Disk_shift = 0mm
!  $G1 = 0.243589743589744mm
!  $G2 = 0.608974358974359mm
!  $S0 = 50mil
!  $S1 = 0.243589743589744mm
!  $S2 = 4.87179487179487mm
!  $SL = 1.46153846153846mm
!  $SW = 0.584615384615385mm
!  $VL = 1.82692307692308mm
!  $VW = 0.618717948717949mm
!  $W = 3.02051282051282mm
!  $W1 = 3.02051282051282mm
!  $extension_from_slot = 4.87179487179487mm
!  $length = 21.9121153846154mm
!  $new_width = 9.68025641025641mm
!  $offset = 0.5mm
!  $patch_step = 3.34935897435897mm
!  $slot_center_to_short = 5.02403846153846mm
!  $slot_side = 0.730769230769231mm
!  $slot_step = 3.34935897435897mm
!  $substrate_edge = 2.23290598290598mm
!  $width = 6.04102564102564mm
!  brick_dist = 0.608974358974359mm
!  leak_gap = 5.5mm
!Data is not renormalized
# GHZ S MA
! Modal data exported
! Port[1] = 1:1
! Port[2] = 2:1
30               0.451362620278449 40.2028923987074 0.718426996308409 130.965492765488 0.718426996308409 130.965492765488 0.451922283292989 40.8059982767168 
! Gamma         !               2.70303551862518 278.841301501725 2.70304893056149 278.840041739591 
! Port Impedance440.408350323778 4.32484710522506 440.391824547543 4.3245473781618  

30.01            0.450427923475663 37.7512864651207 0.718763621055715 128.483107592196 0.718763621055715 128.483107592196 0.450991722728845 38.3551549184686 
! Gamma         !               2.69099635943955 280.223198601951 2.69100959127843 280.221945049751 
! Port Impedance438.383281056313 4.26515725179491 438.366894272532 4.26486344428194 

30.02            0.449450548657763 35.2998645931504 0.719075617626879 126.003531647491 0.719075617626879 126.003531647491 0.450018333192869 35.9043690100176 
! Gamma         !               2.67913590719504 281.598773521392 2.67914896316549 281.597526090236 
! Port Impedance436.387864339923 4.20687993621039 436.371613662229 4.2065918669472  

30.03            0.448435042776476 32.8488194440233 0.719363131464415 123.526859400627 0.719363131464415 123.526859400627 0.44900662923634 33.4538282212921 
! Gamma         !               2.66744989206037 282.968118398057 2.66746277625236 282.966877001166 
! Port Impedance434.421393271165 4.1499685691894  434.405275902358 4.1496860641998  

30.04            0.447385897473657 30.398327507416  0.719626272021339 121.053179795271 0.719626272021339 121.053179795271 0.447961071045097 31.0037043601623 
! Gamma         !               2.65593418526304 284.331323183764 2.65594690163334 284.330087736396 
! Port Impedance432.483184259575 4.09437852187198 432.467197488021 4.09410141413987 

30.05            0.446307534806253 27.9485499299307 0.719865113615642 118.582576509841 0.719865113615642 118.582576509841 0.446886050375645 28.5541541997078 
! Gamma         !               2.6445847931604  285.68847571589  2.64459734553813 285.687246135275 
! Port Impedance430.572576049386 4.0400670258622  430.556717245584 4.03979515498877 

30.06            0.445204294280039 25.4996333894947 0.720079696467544 116.115128218824 0.720079696467544 116.115128218824 0.445785877775998 26.1053203501018 
! Gamma         !               2.63339785161225 287.039661786144 2.63341024370416 287.038437991423 
! Port Impedance428.688928790892 3.98699307923961 428.673195404218 3.98672629112052 

30.07            0.444080421187658 23.0517110048431 0.720270027907645 113.650908853911 0.720270027907645 113.650908853911 0.444664771086507 23.6573321644958 
! Gamma         !               2.62236962063712 288.384965206482 2.62238185603253 288.383747118643 
! Port Impedance426.831623158572 3.93511735813331 426.816012714178 3.93485550465441 

30.08            0.442940056232019 20.6049032696484 0.720436083743737 111.189987863798 0.720436083743737 111.189987863798 0.443526845201855 21.2103066686845 
! Gamma         !               2.61149647933539 289.724467872329 2.61150856151099 289.723255414149 
! Port Impedance425.000059513169 3.88440213348141 424.984569609029 3.88414507223192 

30.09            0.44178722640364 18.1593190014954 0.720577809773841 108.732430471598 0.720577809773841 108.732430471598 0.442376103063286 18.7643495049492 
! Gamma         !               2.60077492106376 291.058249823218 2.60078685338813 291.057042919207 
! Port Impedance423.193657105188 3.83481119262874 423.178285409292 3.83455878663063 

30.1             0.4406258370699  15.715056296469  0.720695123432829 106.278297928884 0.720695123432829 106.278297928884 0.441216427839775 16.3195558810346 
! Gamma         !               2.59020154884647 292.386389300998 2.59021333458436 292.385187877345 
! Port Impedance421.411853317407 3.78630976544079 421.396597565083 3.78606188289336 

30.11            0.439459665225441 13.2722034808325 0.720787915559949 103.827647765416 0.720787915559949 103.827647765416 0.440051576248404 13.876011515911  
! Gamma         !               2.5797730710096  293.708962805715 2.57978471332601 293.707766790235 
! Port Impedance419.654102944155 3.73886445463628 419.638960935516 3.73862096867491 

30.12            0.438292353846014 10.8308400520067 0.720856052274512 101.380534033745 0.720856052274512 101.380534033745 0.438885172957412 11.4337935746774 
! Gamma         !               2.5694862970258  295.026045149275 2.5694977989899  295.024854471361 
! Port Impedance417.919877505288 3.69244317006312 417.904847102805 3.69220395853137 

30.13            0.437127407282783 8.39103760174397 0.720899376947073 98.937007547867  0.720899376947073 98.937007547867  0.437720706010315 8.99297158563733 
! Gamma         !               2.55933813355761 296.337709507014 2.55934949814645 296.336524097591 
! Port Impedance416.208664592886 3.6470150666619  416.193743719062 3.64678001189604 

30.14            0.43596818763039 5.95286071521619 0.720917712253472 96.4971161152655 0.720917712253472 96.4971161152655 0.436561523205803 6.55360833337635 
! Gamma         !               2.54932558068823 297.644027467252 2.54933681079025 297.642847258724 
! Port Impedance414.519967248854 3.60255048588084 414.505153884015 3.60231947450597 

30.15            0.434817911999715 3.51636784039452 0.720910862299313 94.0609047616624 0.720910862299313 94.0609047616624 0.435410829365923 4.1157607223126  
! Gamma         !               2.5394457283292  298.94506907894  2.53945682674764 298.943894005153 
! Port Impedance412.853303371713 3.55902090032162 412.838595551892 3.5587938230589  

30.16            0.433679650625227 1.08161212291946 0.720878614802562 91.6284159479413 0.720878614802562 91.6284159479413 0.434271684423957 1.67948060599199 
! Gamma         !               2.52969575279556 300.240902897485 2.52970672225164 300.239732893682 
! Port Impedance411.20820515098  3.51639886141318 411.1936009659   3.51617561289713 

30.17            0.432556325736808 -1.35135779770022 0.720820743322226 89.1996897787122 0.720820743322226 89.1996897787122 0.433147002263457 -0.755184421978794 
! Gamma         !               2.52007291353906 301.531596028838 2.52008375667506 301.530431031617 
! Port Impedance409.584218527628 3.47465794992304 409.569716118772 3.47443842852864 

30.18            0.431450711126886 -3.78249703398855 0.720737009521292 86.7747642020857 0.720737009521292 86.7747642020857 0.432039550240809 -3.18819027875417 
! Gamma         !               2.51057455003093 302.817214171928 2.51058526941316 302.816054119201 
! Port Impedance407.980902679215 3.43377272913051 407.966500237983 3.43355683680924 

30.19            0.430365432345448 -6.21176374126912 0.720627165452407 84.353675200299  0.720627165452407 84.353675200299  0.430951949325396 -5.61949568757032 
! Gamma         !               2.50119807878646 304.0978216595   2.50120867690799 304.09666649046  
! Port Impedance406.397829528382 3.39371870049794 406.38352529433  3.39350634262241 

30.2             0.429302967457897 -8.63911845548585 0.720490955855083 81.9364569708456 0.720490955855083 81.9364569708456 0.429886674793775 -8.04906151975066 
! Gamma         !               2.49194099052333 305.373481497464 2.49195146980671 305.372331152546 
! Port Impedance404.834583273441 3.35447226168716 404.820375532594 3.35426334690367 

30.21            0.428265648303624 -11.0645234796156 0.720328120453583 79.5231420978913 0.720328120453583 79.5231420978913 0.428846057417086 -10.4768501849391 
! Gamma         !               2.48280084744717 306.644255402781 2.48281121024696 306.643109823625 
! Port Impedance403.290759939929 3.3160106667794  403.276647023167 3.31580510686803 

30.22            0.427255662196412 -13.4879423197255 0.720138396244956 77.1137617137467 0.720138396244956 77.1137617137467 0.42783228508414 -12.9028250706396 
! Gamma         !               2.47377528065725 307.910203839986 2.47378552926251 307.909062969404 
! Port Impedance401.765966951997 3.27831198856595 401.751947233512 3.27810969830778 

30.23            0.426275054011434 -15.9093391711654 0.719921519767131 74.7083456502885 0.719921519767131 74.7083456502885 0.426847404806135 -15.326950031578 
! Gamma         !               2.46486198766641 309.171386056378 2.46487212430295 309.170249838324 
! Port Impedance400.259822722629 3.2413550827866  400.245894618445 3.24115597983756 

30.24            0.425325728607296 -18.3286784549724 0.719677229337359 72.3069225802124 0.719677229337359 72.3069225802124 0.425893325052568 -17.7491889290096 
! Gamma         !               2.45605873002902 310.427860115962 2.45606875686174 310.426728495496 
! Port Impedance398.771956261711 3.20511955420018 398.758118228267 3.2049235589712  

30.25            0.424409453535472 -20.7459244041055 0.719405267251716 69.9095201480973 0.719405267251716 69.9095201480973 0.424971818371739 -20.1695052196332 
! Gamma         !               2.44736333107174 311.679682932182 2.44737325020667 311.678555855443 
! Port Impedance397.302006801034 3.16958572437999 397.288257333831 3.16939275992304 

30.26            0.423527861993348 -23.1610406987419 0.71910538193685 67.5161650913054 0.71910538193685 67.5161650913054 0.424084524252984 -22.5878615933987 
! Gamma         !               2.43877367372166 312.926910299493 2.43878348720806 312.925787713669 
! Port Impedance395.849623435399 3.13473460113384 395.835961067689 3.13454459303359 

30.27            0.422682455980927 -25.5739901495735 0.718777330045593 65.1268833507421 0.718777330045593 65.1268833507421 0.423232952191551 -25.0042196592032 
! Gamma         !               2.43028769842698 314.169596923843 2.43029740825929 314.16847877714  
! Port Impedance394.414464778966 3.10054784945434 394.400888080516 3.10036072572508 

30.28            0.421874609625002 -27.9847344276592 0.718420878488553 62.7417001716218 0.718420878488553 62.7417001716218 0.422418484920695 -27.418539677092 
! Gamma         !               2.42190340116565 315.407796452079 2.42191300928538 315.406682693698 
! Port Impedance392.996198636148 3.06700776391239 392.982706212031 3.0668234548999  

30.29            0.421105572638235 -30.3932338391988 0.718035806394275 60.3606401943495 0.718035806394275 60.3606401943495 0.421642381779108 -29.8307803353899 
! Gamma         !               2.41361883153759 316.641561500359 2.4136283398351  316.640452080465 
! Port Impedance391.59450168627  3.03409724241114 391.581092175725 3.0339156806993  

30.3             0.420376473884027 -32.7994471433045 0.717621906991098 57.9837275357275 0.717621906991098 57.9837275357275 0.420905782185174 -32.2408985709005 
! Gamma         !               2.4054320909363  317.870943681577 2.40544150125254 317.869838551277 
! Port Impedance390.209059181362 3.00179976122411 390.195731256688 3.00162088154593 

30.31            0.41968832502133 -35.2033314106914 0.717178989404322 55.6109858606878 0.717178989404322 55.6109858606878 0.420209709192748 -34.6488494301537 
! Gamma         !               2.39734133079612 319.095993631866 2.39735064492426 319.094892743182 
! Port Impedance388.839564656424 2.97009935124518 388.82631702192  2.96992309039799 

30.32            0.419042024206615 -37.6048419210194 0.716706880362845 53.2424384448158 0.716706880362845 53.2424384448158 0.419555073106136 -37.0545859694927 
! Gamma         !               2.38934475091129 320.316761036211 2.38935397059836 320.315664342057 
! Port Impedance387.485719651555 2.9389805753831  387.472551042504 2.93880687214777 

30.33            0.418438359833073 -40.0039320964884 0.716205425809965 50.8781082279547 0.716205425809965 50.8781082279547 0.418942675134742 -39.458059191653 
! Gamma         !               2.38144059782363 321.533294653195 2.38144972477201 321.532202107355 
! Port Impedance386.147233445396 2.9084285070376  386.13414262709  2.90825730210146 

30.34            0.417878014289706 -42.4005534692161 0.71567449241361 48.5180178591845 0.71567449241361 48.5180178591845 0.418373211070414 -41.8592180164146 
! Gamma         !               2.37362716327525 322.745642338935 2.3736361991441  322.74455389604  
! Port Impedance384.82382279933  2.87842870959738 384.810808566126 2.87825994548071 

30.35            0.417361567725406 -44.7946556798038 0.715113968971767 46.1621897335386 0.715113968971767 46.1621897335386 0.41784727497286 -44.2580092827769 
! Gamma         !               2.36590278272342 323.953851070226 2.36591172913013 323.95276668573  
! Port Impedance383.515211711932 2.84896721690469 383.502272886353 2.84880083789059 

30.36            0.416889501805247 -47.1861865044978 0.714523767709502 43.8106460208022 0.714523767709502 43.8106460208022 0.41736536285061 -46.6543777801012 
! Gamma         !               2.35826583391458 325.157966966926 2.35827469243612 325.156886597089 
! Port Impedance382.221131183195 2.82003051463425 382.20826661506  2.81986646670168 

30.37            0.416462203448218 -49.5750919082883 0.713903825464486 41.4634086867897 0.713903825464486 41.4634086867897 0.416927876326963 -49.0482663055971 
! Gamma         !               2.35071473551483 326.358035313615 2.35072350768903 326.356958915482 
! Port Impedance380.94131898807  2.79160552253738 380.928527553661 2.7914437532972  

30.38            0.416079968537327 -51.961316121326 0.713254104758512 39.1204995074867 0.713254104758512 39.1204995074867 0.416535126281985 -51.4396157455592 
! Gamma         !               2.34324794579409 327.554100580562 2.34325663312089 327.553028111939 
! Port Impedance379.67551945889  2.76367957750528 379.662800060145 2.7635200361392  

30.39            0.415743005594575 -54.3448017360213 0.712574594753083 36.781940076487  0.712574594753083 36.781940076487  0.416187336463211 -53.8283651777378 
! Gamma         !               2.3358639613617  328.746206444009 2.33587256530431 328.74513786345  
! Port Impedance378.423483276265 2.73624041740826 378.410834840005 2.73608305461043 

30.4             0.415451439414665 -56.7254898222563 0.711865312087659 34.4477518061433 0.711865312087659 34.4477518061433 0.415884647058981 -56.2144519922881 
! Gamma         !               2.32856131595085 329.934395805823 2.32856983793697 329.93333107261  
! Port Impedance377.184967268069 2.70927616567007 377.172388745256 2.70912093359135 

30.41            0.415205314652468 -59.1033200581939 0.71112630159976 32.1179559228691 0.71112630159976 32.1179559228691 0.415627118229494 -58.5978120287875 
! Gamma         !               2.32133857924983 331.118710812521 2.32134702067272 331.117649886644 
! Port Impedance375.959734216145 2.68277531653898 375.947224581161 2.68262216873353 

30.42            0.415004599360312 -61.4782308742194 0.710357636926654 29.7925734570511 0.710357636926654 29.7925734570511 0.41541473359169 -60.9783797268572 
! Gamma         !               2.31419435577796 332.2991928737   2.31420271799748 332.298135715842 
! Port Impedance374.747552670385 2.65672672101974 374.735110920344 2.65657561239404 

30.43            0.414849188472018 -63.8501596076882 0.709559420988863 27.4716252279947 0.709559420988863 27.4716252279947 0.41524740365486 -63.3560882880532 
! Gamma         !               2.30712728380399 333.475882679894 2.30713556814768 333.474829251412 
! Port Impedance373.548196769848 2.63111957343209 373.535821923928 2.63097046019611 

30.44            0.414738907231338 -66.2190426661867 0.708731786356308 25.1551318243883 0.708731786356308 25.1551318243883 0.415124969204652 -65.7308698467238 
! Gamma         !               2.30013603430539 334.648820219877 2.30014424206944 334.64777048279  
! Port Impedance372.361446070614 2.60594339856424 372.349137169415 2.60579623818468 

30.45            0.414673514563071 -68.5848156971949 0.707874895498362 22.843113580709  0.707874895498362 22.843113580709  0.415047204633666 -68.1026556477002 
! Gamma         !               2.29321930996653 335.81804479744  2.29322744241667 335.81699871441  
! Port Impedance371.187085380064 2.58118803939073 371.174841484993 2.58104279054631 

30.46            0.414652706385621 -70.9474137621044 0.706988940919622 20.5355905500423 0.706988940919622 20.5355905500423 0.415013821217375 -70.4713762287509 
! Gamma         !               2.286375844214   336.983595047652 2.28638390258651 336.982552581968 
! Port Impedance370.024904597319 2.55684364532655 370.01272478999  2.55670026786516 

30.47            0.41467611886417 -73.3067715127142 0.70607414518365 18.2325824737427 0.70607414518365 18.2325824737427 0.415024470334434 -72.8369616058958 
! Gamma         !               2.27960440028768 338.145508952628 2.2796123857902  338.144470068195 
! Port Impedance368.874698559553 2.53290066099051 368.862581941211 2.53275911588816 

30.48            0.414743331603934 -75.662823368436 0.705130760827398 15.9341087483874 0.705130760827398 15.9341087483874 0.415078746630773 -75.1993414597744 
! Gamma         !               2.27290377034574 339.303823856827 2.27291168415816 339.302788518148 
! Port Impedance367.736266893939 2.50934981545259 367.724212584907 2.50921006477407 

30.49            0.414853870783253 -78.0155036925936 0.704159070169451 13.6401883904479 0.704159070169451 13.6401883904479 0.415176191127069 -77.5584453214172 
! Gamma         !               2.2662727746023  340.458576481889 2.26628061787757 340.457544654053 
! Port Impedance366.60941387498  2.48618211194141 366.597421014124 2.48604411880257 

30.5             0.415007212226364 -80.3647469663425 0.703159385015627 11.3508399990965 0.703159385015627 11.3508399990965 0.41531629426937 -79.9142027559073 
! Gamma         !               2.25971026049629 341.609802941033 2.25971803436118 341.608774589701 
! Port Impedance365.493948287    2.46338881798912 365.482016031208 2.46325254652076 

30.51            0.415202784415915 -82.7104879588693 0.702132046265841 9.0660817175625  0.702132046265841 9.0660817175625  0.41549849892272 -82.2665435425471 
! Gamma         !               2.25321510189017 342.757538753029 2.25322280744608 342.756513844423 
! Port Impedance364.389683291566 2.44096145599261 364.37781081525  2.44082687130575 

30.52            0.415439971445248 -85.0526618926986 0.701077423426466 6.78593119341829 0.701077423426466 6.78593119341829 0.415722203307727 -84.6153978503121 
! Gamma         !               2.24678619829726 343.901818855766 2.2467938366209  343.900797356653 
! Port Impedance363.296436299643 2.41889179417059 363.28462279426  2.41875886232322 

30.53            0.415718115910592 -87.3912046030402 0.699995914032764 4.51040553819174 0.699995914032764 4.51040553819174 0.415986763879999 -86.9606964074806 
! Gamma         !               2.24042247413649 345.042677619414 2.24043004628066 345.041659497096 
! Port Impedance362.214028848284 2.39717183789775 362.202273521866 2.39704052586291 

30.54            0.416036521743265 -89.7260526902909 0.698887942986193 2.23952128664954 0.698887942986193 2.23952128664954 0.416291498152382 -89.3023706645028 
! Gamma         !               2.23412287801349 346.18014885922  2.23413038500769 346.17913408152  
! Port Impedance361.142286481657 2.37579382139786 361.130588558363 2.37566409703295 

30.55            0.416394456981944 -92.0571436649161 0.697753961811679 -0.0267056438997073 0.697753961811679 -0.0267056438997073 0.4166356874599  -91.6403529492899 
! Gamma         !               2.22788638202671 347.31426584792  2.22789382487785 347.313254383172 
! Port Impedance360.081038636238 2.35475019977866 360.069397355919 2.35462203179601 

30.56            0.416791156485049 -94.3844160840664 0.696594447840131 -2.28825999394807 0.696594447840131 -2.28825999394807 0.417018579667221 -93.9745766142277 
! Gamma         !               2.22171198109789 348.445061327812 2.2217193607909  348.444053144851 
! Port Impedance359.030118529997 2.33403364139268 359.018533147774 2.33390699933131 

30.57            0.417225824583201 -96.70780967944  0.695409903321627 -4.54512720149209 0.695409903321627 -4.54512720149209 0.417439391818448 -96.304976174381 
! Gamma         !               2.21559869232554 349.572567522475 2.21560600982399 349.571562590623 
! Port Impedance357.989363055414 2.31363702050835 357.977832841272 2.31351187470683 

30.58            0.417697637671652 -99.0272654759748 0.694200854474902 -6.7972934407866 0.694200854474902 -6.7972934407866 0.417897312728897 -98.6314874364263 
! Gamma         !               2.20954555436071 350.696816148162 2.20955281060742 350.695814437219 
! Port Impedance356.958612676166 2.29355341027732 356.947136914564 2.29342973184773 

30.59            0.4182057467425  -101.34272590113 0.692967850478781 -9.04474565991704 0.692967850478781 -9.04474565991704 0.41839150551851 -100.954047618026 
! Gamma         !               2.20355162680406 351.817838424877 2.20355882272167 351.816839905109 
! Port Impedance355.937711327342 2.27377607598378 355.926289316828 2.27365383678673 

30.6             0.418749279856423 -103.654134884545 0.691711462411373 -11.2874716169122 0.691711462411373 -11.2874716169122 0.418921110086423 -103.272595457394 
! Gamma         !               2.19761598962348 352.935665087132 2.19762312611498 352.934669729265 
! Port Impedance354.926506319045 2.2542984685634  354.91513737189  2.25417764118392 

30.61            0.419327344553606 -105.961437948052 0.690432282142775 -13.5254599142094 0.690432282142775 -13.5254599142094 0.419485245526146 -105.587071312984 
! Gamma         !               2.19173774259121 354.050326394424 2.19174482054051 354.049334169629 
! Port Impedance353.924848243239 2.23511421837899 353.913531685081 2.2349947761033  

30.62            0.419939030203412 -108.264582286016 0.689130921187112 -15.7587000312529 0.689130921187112 -15.7587000312529 0.420083012480743 -107.897417253241 
! Gamma         !               2.18591600474001 355.161852141404 2.18592302501244 355.160863021292 
! Port Impedance352.932590883718 2.2162171292415  352.921326053219 2.2160990460347  

30.63            0.420583410292346 -110.563516836134 0.687808009519692 -17.987182355054 0.687808009519692 -17.987182355054 0.420713495437315 -110.203577136511 
! Gamma         !               2.18014991383735 356.270271667784 2.18015687728016 356.269285624394 
! Port Impedance351.94959112908  2.19760117266528 351.93837737759  2.19748442314984 

30.64            0.421259544649714 -112.858192340858 0.68646419436496 -20.2108982085622 0.68646419436496 -20.2108982085622 0.421375764960055 -112.505496681235 
! Gamma         !               2.17443862587705 357.375613867968 2.1744455333199  357.374630873758 
! Port Impedance350.975708888572 2.17926048234691 350.964545579807 2.179145041782   

30.65            0.421966481610396 -115.14856139966 0.685100138960905 -22.4298398767022 0.685100138960905 -22.4298398767022 0.422068879861056 -114.803123526638 
! Gamma         !               2.16878131458769 358.477907200416 2.16878816684312 358.476927228255 
! Port Impedance350.010807010715 2.16118934885777 349.999693520442 2.16107519311939 

30.66            0.422703260114072 -117.434578512475 0.683716521305409 -24.6440006299824 0.683716521305409 -24.6440006299824 0.422791889308063 -117.096407284188 
! Gamma         !               2.16317717095706 359.577179696775 2.16318396882095 359.576202719935 
! Port Impedance349.054751204576 2.14338221454074 349.043686920316 2.14326932010256 

30.67            0.42346891174019 -119.716200114609 0.682314032889921 -26.8533747455551 0.682314032889921 -26.8533747455551 0.423543834868265 -119.385299580127 
! Gamma         !               2.15762540277221 360.673458970744 2.1576321470242  360.672484962891 
! Port Impedance348.107409963621 2.12583366860209 348.096394284347 2.12572201251707 

30.68            0.424262462677971 -121.993384603538 0.680893377425657 -29.0579575256813 0.680893377425657 -29.0579575256813 0.424323752487289 -121.669754089451 
! Gamma         !               2.15212523417421 361.766772226719 2.15213192557815 361.765801161904 
! Port Impedance347.16865449201  2.10853844239002 347.157686827869 2.10842800227262 

30.69            0.425082935630716 -124.266092357995 0.679455269567346 -31.2577453135357 0.679455269567346 -31.2577453135357 0.425130674402467 -123.949726561736 
! Gamma         !               2.14667590522739 362.857146268206 2.14668254453173 362.85617812086  
! Port Impedance346.238358633272 2.09149140485157 346.227438405307 2.09138215886065 

30.7             0.425929351653669 -126.534285749761 0.678000433639353 -33.4527355063075 0.678000433639353 -33.4527355063075 0.425963630989527 -126.225174839216 
! Gamma         !               2.14127667150227 363.94460750601  2.14128325944048 363.943642250933 
! Port Impedance345.316398801254 2.07468755816033 345.305525441137 2.0745794849827  

30.71            0.42680073192473 -128.797929148661 0.676529602368757 -35.6429265655992 0.676529602368757 -35.6429265655992 0.426821652541832 -128.496058867578 
! Gamma         !               2.13592680367178 365.029181966216 2.13593334096272 365.02821957857  
! Port Impedance344.40265391327  2.05812203350749 344.391826863042 2.05801511234198 

30.72            0.427696099447276 -131.056988921191 0.675043515629774 -37.8283180250991 0.675043515629774 -37.8283180250991 0.427703770981349 -130.762340699926 
! Gamma         !               2.13062558712027 366.110895297955 2.13063207446855 366.109935753259 
! Port Impedance343.497005325355 2.04179008704922 343.486224037175 2.04168429759138 

30.73            0.428614480684461 -133.311433423268 0.673542919203622 -40.0089104955656 0.673542919203622 -40.0089104955656 0.428609021500561 -133.023984494389 
! Gamma         !               2.12537232156475 367.189772780978 2.12537875966112 367.188816055101 
! Port Impedance342.599336769554 2.02568709600375 342.588600705456 2.02558241843109 

30.74            0.429554907124322 -135.561232987577 0.672028563557703 -42.1847056671264 0.672028563557703 -42.1847056671264 0.429536444134599 -135.280956505823 
! Gamma         !               2.12016632068803 368.265839333034 2.12017271020973 368.264885402183 
! Port Impedance341.709534293174 2.00980855489183 341.698842924829 2.00970496984956 

30.75            0.430516416775146 -137.806359905976 0.670501202647688 -44.3557063089598 0.670501202647688 -44.3557063089598 0.430485085262937 -137.533225072118 
! Gamma         !               2.11500691178325 369.339119517053 2.11501325339433 369.338168357772 
! Port Impedance340.827486199915 1.99415007191444 340.816839008404 1.9940475605017  

30.76            0.431498055590563 -140.046788407438 0.668961592745839 -46.5219162663992 0.668961592745839 -46.5219162663992 0.431453999040063 -139.780760595534 
! Gamma         !               2.10989343540937 370.409637548156 2.10989972976103 370.408689137318 
! Port Impedance339.953082992825 1.97870736546203 339.942479468413 1.97860590921864 

30.77            0.432498878823944 -142.282494631946 0.667410491298609 -48.6833404555219 0.667410491298609 -48.6833404555219 0.432442248754627 -142.023535519538 
! Gamma         !               2.10482524505727 371.477417300483 2.10483149278819 371.476471615283 
! Port Impedance339.086217319009 1.96347626074991 339.075656960931 1.96337584164359 

30.78            0.433517952311735 -144.513456600819 0.665848655816309 -50.8399848553236 0.665848655816309 -50.8399848553236 0.433448908116689 -144.261524301595 
! Gamma         !               2.09980170682608 372.542482313855 2.09980790856271 372.5415393318   
! Port Impedance338.226783916012 1.94845268657437 338.216266232263 1.94835328698832 

30.79            0.434554353685471 -146.739654183832 0.664276842797331 -52.9918564975294 0.664276842797331 -52.9918564975294 0.434473062472735 -146.494703382302 
! Gamma         !               2.09482219910931 373.604855800256 2.09482835546617 373.603915499167 
! Port Impedance337.374679559852 1.93363267218476 337.364204066981 1.93353427490574 

30.8             0.435607173512304 -148.961069063585 0.662695806689151 -55.1389634541749 0.662695806689151 -55.1389634541749 0.435513809948319 -148.723051151323 
! Gamma         !               2.08988611229045 374.664560650177 2.08989222387047 374.663623008177 
! Port Impedance336.529803014602 1.91901234426655 336.519369237517 1.91891493247332 

30.81            0.436675516363982 -151.177684697434 0.661106298888076 -57.2813148230226 0.661106298888076 -57.2813148230226 0.436570262518228 -150.946547910451 
! Gamma         !               2.08499284844783 375.721619438782 2.08499891584256 375.720684434291 
! Port Impedance335.6920549835   1.9045879240311  335.681662455276 1.90449148128325 

30.82            0.437758501814337 -153.389486277378 0.659509066779416 -59.4189207109487 0.659509066779416 -59.4189207109487 0.437641547004254 -153.165175834217 
! Gamma         !               2.08014182106817 376.776054431934 2.0801478448581  376.775122043667 
! Port Impedance334.861338061519 1.89035572440752 334.850986323207 1.89026023463474 

30.83            0.438855265365452 -155.596460688217 0.657904852819509 -61.5517922154061 0.657904852819509 -61.5517922154061 0.438726806000752 -155.37891892835 